variables ="x","y","s","w"
zone f=point i=150,j=300
0.006666666666666667  -0.9933333333333333  0.0  0.45967330489494660.013333333333333334  -0.9933333333333333  0.0  0.45967330489494660.02  -0.9933333333333333  0.0  0.45967330489494660.02666666666666667  -0.9933333333333333  0.0  0.45967330489494660.03333333333333333  -0.9933333333333333  0.0  0.45967330489494660.04  -0.9933333333333333  0.0  0.45967330489494660.04666666666666667  -0.9933333333333333  0.0  0.45967330489494660.05333333333333334  -0.9933333333333333  0.0  0.45967330489494660.060000000000000005  -0.9933333333333333  0.0  0.45967330489494660.06666666666666667  -0.9933333333333333  0.0  0.45967330489494660.07333333333333333  -0.9933333333333333  0.0  0.45967330489494660.08  -0.9933333333333333  0.0  0.45967330489494660.08666666666666667  -0.9933333333333333  0.0  0.45967330489494660.09333333333333334  -0.9933333333333333  0.0  0.45967330489494660.1  -0.9933333333333333  0.0  0.45967330489494660.10666666666666667  -0.9933333333333333  0.0  0.45967330489494660.11333333333333334  -0.9933333333333333  0.0  0.45967330489494660.12000000000000001  -0.9933333333333333  0.0  0.45967330489494660.12666666666666668  -0.9933333333333333  0.0  0.45967330489494660.13333333333333333  -0.9933333333333333  0.0  0.45967330489494660.14  -0.9933333333333333  0.0  0.45967330489494660.14666666666666667  -0.9933333333333333  0.0  0.45967330489494660.15333333333333335  -0.9933333333333333  0.0  0.45967330489494660.16  -0.9933333333333333  0.0  0.45967330489494660.16666666666666669  -0.9933333333333333  0.0  0.45967330489494660.17333333333333334  -0.9933333333333333  0.0  0.45967330489494660.18000000000000002  -0.9933333333333333  0.0  0.45967330489494660.18666666666666668  -0.9933333333333333  0.0  0.45967330489494660.19333333333333336  -0.9933333333333333  0.0  0.45967330489494660.2  -0.9933333333333333  0.0  0.45967330489494660.2066666666666667  -0.9933333333333333  0.0  0.45967330489494660.21333333333333335  -0.9933333333333333  0.0  0.45967330489494660.22  -0.9933333333333333  0.0  0.45967330489494660.22666666666666668  -0.9933333333333333  0.0  0.45967330489494660.23333333333333334  -0.9933333333333333  0.0  0.45967330489494660.24000000000000002  -0.9933333333333333  0.0  0.45967330489494660.24666666666666667  -0.9933333333333333  0.0  0.45967330489494660.25333333333333335  -0.9933333333333333  0.0  0.45967330489494660.26  -0.9933333333333333  0.0  0.45967330489494660.26666666666666666  -0.9933333333333333  0.0  0.45967330489494660.2733333333333334  -0.9933333333333333  0.0  0.45967330489494660.28  -0.9933333333333333  0.0  0.45967330489494660.2866666666666667  -0.9933333333333333  0.0  0.45967330489494660.29333333333333333  -0.9933333333333333  0.0  0.45967330489494660.30000000000000004  -0.9933333333333333  0.0  0.45967330489494660.3066666666666667  -0.9933333333333333  0.0  0.45967330489494660.31333333333333335  -0.9933333333333333  0.0  0.45967330489494660.32  -0.9933333333333333  0.0  0.45967330489494660.32666666666666666  -0.9933333333333333  0.0  0.45967330489494660.33333333333333337  -0.9933333333333333  0.0  0.45967330489494660.34  -0.9933333333333333  0.0  0.45967330489494660.3466666666666667  -0.9933333333333333  0.0  0.45967330489494660.35333333333333333  -0.9933333333333333  0.0  0.45967330489494660.36000000000000004  -0.9933333333333333  0.0  0.45967330489494660.3666666666666667  -0.9933333333333333  0.0  0.45967330489494660.37333333333333335  -0.9933333333333333  0.0  0.45967330489494660.38  -0.9933333333333333  0.0  0.45967330489494660.3866666666666667  -0.9933333333333333  0.0  0.45967330489494660.39333333333333337  -0.9933333333333333  0.0  0.45967330489494660.4  -0.9933333333333333  0.0  0.45967330489494660.4066666666666667  -0.9933333333333333  0.0  0.45967330489494660.4133333333333334  -0.9933333333333333  0.0  0.45967330489494660.42000000000000004  -0.9933333333333333  0.0  0.45967330489494660.4266666666666667  -0.9933333333333333  0.0  0.45967330489494660.43333333333333335  -0.9933333333333333  0.0  0.45967330489494660.44  -0.9933333333333333  0.0  0.45967330489494660.4466666666666667  -0.9933333333333333  0.0  0.45967330489494660.45333333333333337  -0.9933333333333333  0.0  0.45967330489494660.46  -0.9933333333333333  0.0  0.45967330489494660.4666666666666667  -0.9933333333333333  0.0  0.45967330489494660.4733333333333334  -0.9933333333333333  0.0  0.45967330489494660.48000000000000004  -0.9933333333333333  0.0  0.45967330489494660.4866666666666667  -0.9933333333333333  0.0  0.45967330489494660.49333333333333335  -0.9933333333333333  0.0  0.45967330489494660.5  -0.9933333333333333  0.0  0.45967330489494660.5066666666666667  -0.9933333333333333  0.0  0.45967330489494660.5133333333333334  -0.9933333333333333  0.0  0.45967330489494660.52  -0.9933333333333333  0.0  0.45967330489494660.5266666666666667  -0.9933333333333333  0.0  0.45967330489494660.5333333333333333  -0.9933333333333333  0.0  0.45967330489494660.54  -0.9933333333333333  0.0  0.45967330489494660.5466666666666667  -0.9933333333333333  0.0  0.45967330489494660.5533333333333333  -0.9933333333333333  0.0  0.45967330489494660.56  -0.9933333333333333  0.0  0.45967330489494660.5666666666666667  -0.9933333333333333  0.0  0.45967330489494660.5733333333333334  -0.9933333333333333  0.0  0.45967330489494660.5800000000000001  -0.9933333333333333  0.0  0.45967330489494660.5866666666666667  -0.9933333333333333  0.0  0.45967330489494660.5933333333333334  -0.9933333333333333  0.0  0.45967330489494660.6000000000000001  -0.9933333333333333  0.0  0.45967330489494660.6066666666666667  -0.9933333333333333  0.0  0.45967330489494660.6133333333333334  -0.9933333333333333  0.0  0.45967330489494660.62  -0.9933333333333333  0.0  0.45967330489494660.6266666666666667  -0.9933333333333333  0.0  0.45967330489494660.6333333333333334  -0.9933333333333333  0.0  0.45967330489494660.64  -0.9933333333333333  0.0  0.45967330489494660.6466666666666667  -0.9933333333333333  0.0  0.45967330489494660.6533333333333333  -0.9933333333333333  0.0  0.45967330489494660.66  -0.9933333333333333  0.0  0.45967330489494660.6666666666666667  -0.9933333333333333  0.0  0.45967330489494660.6733333333333333  -0.9933333333333333  0.0  0.45967330489494660.68  -0.9933333333333333  0.0  0.45967330489494660.6866666666666668  -0.9933333333333333  0.0  0.45967330489494660.6933333333333334  -0.9933333333333333  0.0  0.45967330489494660.7000000000000001  -0.9933333333333333  0.0  0.45967330489494660.7066666666666667  -0.9933333333333333  0.0  0.45967330489494660.7133333333333334  -0.9933333333333333  0.0  0.45967330489494660.7200000000000001  -0.9933333333333333  0.0  0.45967330489494660.7266666666666667  -0.9933333333333333  0.0  0.45967330489494660.7333333333333334  -0.9933333333333333  0.0  0.45967330489494660.7400000000000001  -0.9933333333333333  0.0  0.45967330489494660.7466666666666667  -0.9933333333333333  0.0  0.45967330489494660.7533333333333334  -0.9933333333333333  0.0  0.45967330489494660.76  -0.9933333333333333  0.0  0.45967330489494660.7666666666666667  -0.9933333333333333  0.0  0.45967330489494660.7733333333333334  -0.9933333333333333  0.0  0.45967330489494660.78  -0.9933333333333333  0.0  0.45967330489494660.7866666666666667  -0.9933333333333333  0.0  0.45967330489494660.7933333333333333  -0.9933333333333333  0.0  0.45967330489494660.8  -0.9933333333333333  0.0  0.45967330489494660.8066666666666668  -0.9933333333333333  0.0  0.45967330489494660.8133333333333334  -0.9933333333333333  0.0  0.45967330489494660.8200000000000001  -0.9933333333333333  0.0  0.45967330489494660.8266666666666668  -0.9933333333333333  0.0  0.45967330489494660.8333333333333334  -0.9933333333333333  0.0  0.45967330489494660.8400000000000001  -0.9933333333333333  0.0  0.45967330489494660.8466666666666667  -0.9933333333333333  0.0  0.45967330489494660.8533333333333334  -0.9933333333333333  0.0  0.45967330489494660.8600000000000001  -0.9933333333333333  0.0  0.45967330489494660.8666666666666667  -0.9933333333333333  0.0  0.45967330489494660.8733333333333334  -0.9933333333333333  0.0  0.45967330489494660.88  -0.9933333333333333  0.0  0.45967330489494660.8866666666666667  -0.9933333333333333  0.0  0.45967330489494660.8933333333333334  -0.9933333333333333  0.0  0.45967330489494660.9  -0.9933333333333333  0.0  0.45967330489494660.9066666666666667  -0.9933333333333333  0.0  0.45967330489494660.9133333333333334  -0.9933333333333333  0.0  0.45967330489494660.92  -0.9933333333333333  0.0  0.45967330489494660.9266666666666667  -0.9933333333333333  0.0  0.45967330489494660.9333333333333333  -0.9933333333333333  0.0  0.45967330489494660.9400000000000001  -0.9933333333333333  0.0  0.45967330489494660.9466666666666668  -0.9933333333333333  0.0  0.45967330489494660.9533333333333334  -0.9933333333333333  0.0  0.45967330489494660.9600000000000001  -0.9933333333333333  0.0  0.45967330489494660.9666666666666667  -0.9933333333333333  0.0  0.45967330489494660.9733333333333334  -0.9933333333333333  0.0  0.45967330489494660.9800000000000001  -0.9933333333333333  0.0  0.45967330489494660.9866666666666667  -0.9933333333333333  0.0  0.45967330489494660.9933333333333334  -0.9933333333333333  0.0  0.45967330489494661.0  -0.9933333333333333  0.0  0.45967330489494660.006666666666666667  -0.9866666666666667  0.0  0.45967330489494660.013333333333333334  -0.9866666666666667  0.0003416536866788479  0.45919965893274290.02  -0.9866666666666667  0.00032610483453486647  0.45790871130349880.02666666666666667  -0.9866666666666667  -1.9754706848835486e-05  0.45649660097512390.03333333333333333  -0.9866666666666667  0.00030801602328265764  0.45503280290868680.04  -0.9866666666666667  -0.0003607884575951781  0.453607281756012560.04666666666666667  -0.9866666666666667  0.00017258728278014498  0.452247936008673250.05333333333333334  -0.9866666666666667  -0.0010074696518698445  0.450966395323566470.060000000000000005  -0.9866666666666667  -0.00017480081239422223  0.449746987108990470.06666666666666667  -0.9866666666666667  -0.0011455834078020074  0.448567036088166340.07333333333333333  -0.9866666666666667  6.650301477739725e-05  0.44739937709141070.08  -0.9866666666666667  -0.0012462292426872609  0.446225989578473370.08666666666666667  -0.9866666666666667  0.0002646743536415459  0.44503320870104950.09333333333333334  -0.9866666666666667  -0.0017010322573053646  0.443811441352309160.1  -0.9866666666666667  -1.0400728040207543e-05  0.44254998856886070.10666666666666667  -0.9866666666666667  -0.0017588694612837824  0.44124253029068340.11333333333333334  -0.9866666666666667  0.0004969246652642631  0.439886301842415840.12000000000000001  -0.9866666666666667  -0.0019551815342328136  0.43848034361872860.12666666666666668  -0.9866666666666667  0.0003557225709429287  0.43702619611132670.13333333333333333  -0.9866666666666667  -0.0024028621242523866  0.43553010060178730.14  -0.9866666666666667  0.0001006430310635692  0.43399916632327270.14666666666666667  -0.9866666666666667  -0.0026670493419842164  0.43244014644874610.15333333333333335  -0.9866666666666667  -0.00010433988146873682  0.43085878143940880.16  -0.9866666666666667  -0.0023000960876440974  0.42925931553309920.16666666666666669  -0.9866666666666667  0.00047737784347328717  0.42764616946449940.17333333333333334  -0.9866666666666667  -0.0022556165883238916  0.426025810560954450.18000000000000002  -0.9866666666666667  -0.000206654956710505  0.42440707199399470.18666666666666668  -0.9866666666666667  -0.001952948974270861  0.42280031434793170.19333333333333336  -0.9866666666666667  0.00020672848620824976  0.42121398404050840.2  -0.9866666666666667  -0.001976615746242617  0.419652609765030550.2066666666666667  -0.9866666666666667  0.00019308272388007832  0.418116488561491860.21333333333333335  -0.9866666666666667  -0.0022436118331164174  0.41660423806036590.22  -0.9866666666666667  0.00036372508311353934  0.41511585097760480.22666666666666668  -0.9866666666666667  -0.002092996651592044  0.41365394700621460.23333333333333334  -0.9866666666666667  -0.00017462594765538963  0.412223199649651260.24000000000000002  -0.9866666666666667  -0.0019489860892970463  0.410828427956278050.24666666666666667  -0.9866666666666667  0.00029161287734920887  0.40947340016378770.25333333333333335  -0.9866666666666667  -0.0018524270461005344  0.408160890826443130.26  -0.9866666666666667  -9.435473156170796e-06  0.406893066547951040.26666666666666666  -0.9866666666666667  -0.002217141312672632  0.405671556568933560.2733333333333334  -0.9866666666666667  0.0002510128181088623  0.40449819653951110.28  -0.9866666666666667  -0.0026241019688624644  0.403374153024378960.2866666666666667  -0.9866666666666667  7.87551444621604e-05  0.402299575056645430.29333333333333333  -0.9866666666666667  -0.002778928651469861  0.40127737231734590.30000000000000004  -0.9866666666666667  5.0724566944529556e-05  0.4003080813523540.3066666666666667  -0.9866666666666667  -0.002589689716356284  0.39938948815009870.31333333333333335  -0.9866666666666667  -3.340442952510625e-05  0.39852634543885790.32  -0.9866666666666667  -0.00236355234960346  0.397716720519258440.32666666666666666  -0.9866666666666667  0.00021587150540625796  0.39696615191322040.33333333333333337  -0.9866666666666667  -0.002356496891777371  0.396327062275397430.34  -0.9866666666666667  -0.00011865690180870082  0.39586032286393970.3466666666666667  -0.9866666666666667  -0.0023384990483260705  0.395589998233135070.35333333333333333  -0.9866666666666667  0.00015410528123562878  0.39553396357775870.36000000000000004  -0.9866666666666667  -0.002455953770803529  0.395711859915275850.3666666666666667  -0.9866666666666667  -3.638354374004345e-05  0.39608127917221420.37333333333333335  -0.9866666666666667  -0.00252841605536351  0.39654192380199560.38  -0.9866666666666667  -6.982659213380151e-05  0.397000412810990850.3866666666666667  -0.9866666666666667  -0.0020311483971557857  0.39739807509868180.39333333333333337  -0.9866666666666667  -0.0004361923557589337  0.397749142790488950.4  -0.9866666666666667  -0.0024652455078664915  0.39812470557042710.4066666666666667  -0.9866666666666667  0.0003935189806900596  0.3985775935785060.4133333333333334  -0.9866666666666667  -0.002487572097026226  0.39911150140934640.42000000000000004  -0.9866666666666667  4.4821350819299836e-05  0.399681298093665760.4266666666666667  -0.9866666666666667  -0.002475915352699685  0.40020295613923070.43333333333333335  -0.9866666666666667  0.0007990309796561874  0.40060435213844840.44  -0.9866666666666667  -0.002655214074116794  0.40088736669197070.4466666666666667  -0.9866666666666667  6.168862562026686e-05  0.40111828552768350.45333333333333337  -0.9866666666666667  -0.002300132666881188  0.401363967812487730.46  -0.9866666666666667  0.00019135104273798942  0.401654657593589870.4666666666666667  -0.9866666666666667  -0.0022457352416533766  0.40198400216714290.4733333333333334  -0.9866666666666667  -0.0002510844232407587  0.402320156223927140.48000000000000004  -0.9866666666666667  -0.002305999826955055  0.40262438855990470.4866666666666667  -0.9866666666666667  -0.00015507302403153765  0.40287571850942520.49333333333333335  -0.9866666666666667  -0.002200877047316168  0.4030879592299720.5  -0.9866666666666667  0.00011097981386382376  0.40330463287536790.5066666666666667  -0.9866666666666667  -0.002082124909796823  0.403571946719564370.5133333333333334  -0.9866666666666667  0.0002827739334217138  0.40391326799901810.52  -0.9866666666666667  -0.0021509143255821345  0.40432915646755530.5266666666666667  -0.9866666666666667  -9.493639635470738e-05  0.40481794653388380.5333333333333333  -0.9866666666666667  -0.0020689774214949735  0.40539100095516640.54  -0.9866666666666667  -5.186091800769529e-05  0.406067989899077330.5466666666666667  -0.9866666666666667  -0.0020611205595766147  0.406860310340849130.5533333333333333  -0.9866666666666667  -4.8067430811679366e-05  0.407759359341535230.56  -0.9866666666666667  -0.0019595115848624056  0.40873924130834530.5666666666666667  -0.9866666666666667  6.129300636455314e-05  0.40977107902952670.5733333333333334  -0.9866666666666667  -0.0020532762562293673  0.41083754803485170.5800000000000001  -0.9866666666666667  7.867771130797338e-05  0.41193668405072060.5866666666666667  -0.9866666666666667  -0.001988665495313839  0.41307295677525930.5933333333333334  -0.9866666666666667  0.0002516898513782533  0.414244346278727140.6000000000000001  -0.9866666666666667  -0.0020481811018721405  0.41543754014612870.6066666666666667  -0.9866666666666667  -0.00024793397662357095  0.41663557647923990.6133333333333334  -0.9866666666666667  -0.0019517159389904368  0.4178298648635310.62  -0.9866666666666667  0.00019793889723343088  0.41902400470641720.6266666666666667  -0.9866666666666667  -0.001849671427296422  0.42022576626350590.6333333333333334  -0.9866666666666667  2.2698325441042416e-05  0.42143660813124810.64  -0.9866666666666667  -0.0019138647300581302  0.42265049248214620.6466666666666667  -0.9866666666666667  6.708016144066584e-05  0.423862824672253670.6533333333333333  -0.9866666666666667  -0.0022236787164700467  0.42507921485940840.66  -0.9866666666666667  -0.00013760814042898973  0.42631505128673620.6666666666666667  -0.9866666666666667  -0.002315958067281  0.427587843145713850.6733333333333333  -0.9866666666666667  7.997689324088487e-05  0.42891076806745060.68  -0.9866666666666667  -0.0022719603841523965  0.430290748417112730.6866666666666668  -0.9866666666666667  0.0002668138788749698  0.431726094091410940.6933333333333334  -0.9866666666666667  -0.002234658899247572  0.43319959999064880.7000000000000001  -0.9866666666666667  9.7989225147006e-05  0.43467344176867720.7066666666666667  -0.9866666666666667  -0.0021600483235714773  0.436098816649279460.7133333333333334  -0.9866666666666667  0.00011569403222199765  0.43744269314103150.7200000000000001  -0.9866666666666667  -0.002128329097927057  0.43871053493069830.7266666666666667  -0.9866666666666667  0.00017410182044257433  0.43993639297888690.7333333333333334  -0.9866666666666667  -0.002293207473887194  0.44114391714886020.7400000000000001  -0.9866666666666667  0.00012893644049833875  0.442324256133669770.7466666666666667  -0.9866666666666667  -0.0018906912132439064  0.44346300663916980.7533333333333334  -0.9866666666666667  0.00017352934046745364  0.444579896749510760.76  -0.9866666666666667  -0.0018011496522108853  0.44572267201778440.7666666666666667  -0.9866666666666667  0.00018790551260413181  0.446927970997632040.7733333333333334  -0.9866666666666667  -0.0016863685200340251  0.44821084096670560.78  -0.9866666666666667  -0.0001908642649760041  0.449580287322707160.7866666666666667  -0.9866666666666667  -0.0017772576371449568  0.45102121601932390.7933333333333333  -0.9866666666666667  -0.0002958162050866534  0.452458029090343940.8  -0.9866666666666667  -0.0017527808782430692  0.453793185473261750.8066666666666668  -0.9866666666666667  8.868514296981789e-05  0.455012322781810640.8133333333333334  -0.9866666666666667  -0.0018185782816616096  0.456203307938645330.8200000000000001  -0.9866666666666667  0.00010654077854331659  0.457443429154439530.8266666666666668  -0.9866666666666667  -0.0018432199355810437  0.458746081266064530.8333333333333334  -0.9866666666666667  -0.00026811656659552207  0.46017030602448650.8400000000000001  -0.9866666666666667  -0.0016908113071340172  0.46185004465034660.8466666666666667  -0.9866666666666667  5.480064796119079e-05  0.46378302902965060.8533333333333334  -0.9866666666666667  -0.0017426688531436284  0.46578053804461850.8600000000000001  -0.9866666666666667  0.0004109603093749466  0.467798999006039830.8666666666666667  -0.9866666666666667  -0.0014804886935228547  0.469906080420488760.8733333333333334  -0.9866666666666667  0.00035028289616964396  0.47198145819972290.88  -0.9866666666666667  -0.0016488151199570316  0.47403360025488490.8866666666666667  -0.9866666666666667  -0.00038473980065174124  0.47617349078272130.8933333333333334  -0.9866666666666667  -0.0019994751630837545  0.478274514925165040.9  -0.9866666666666667  -0.00013042945128428736  0.48024510297837640.9066666666666667  -0.9866666666666667  -0.0023910995889896225  0.48205081495777510.9133333333333334  -0.9866666666666667  -0.00010091138953436013  0.483663471692230840.92  -0.9866666666666667  -0.002121999060070283  0.48509802870824480.9266666666666667  -0.9866666666666667  1.49612557435425e-05  0.4863203850416140.9333333333333333  -0.9866666666666667  -0.002357537326269777  0.487313017237430260.9400000000000001  -0.9866666666666667  0.00033061766707612975  0.48804953263752140.9466666666666668  -0.9866666666666667  -0.0023499160799825905  0.48847025751244640.9533333333333334  -0.9866666666666667  -0.00011670574919027316  0.48847271101131420.9600000000000001  -0.9866666666666667  -0.0021290598970564994  0.48789481490446470.9666666666666667  -0.9866666666666667  0.00014930784213943682  0.486541614375610050.9733333333333334  -0.9866666666666667  -0.0021273938454040918  0.484199466862190840.9800000000000001  -0.9866666666666667  0.00015100044530245765  0.48066273059895330.9866666666666667  -0.9866666666666667  -0.0017245819412220437  0.475695260503535940.9933333333333334  -0.9866666666666667  0.00019552955483588498  0.46890057743722481.0  -0.9866666666666667  -0.05136773163302237  0.45967330489494660.006666666666666667  -0.98  0.0  0.45967330489494660.013333333333333334  -0.98  7.670424200422942e-05  0.458781595649580150.02  -0.98  -1.7623083686738156e-05  0.456313425894501630.02666666666666667  -0.98  0.00039742033676871166  0.45366781444679060.03333333333333333  -0.98  -0.00023931279391937836  0.45099871920016730.04  -0.98  5.978511105815492e-05  0.44847162143923790.04666666666666667  -0.98  0.00028843360494108474  0.44612630132941140.05333333333333334  -0.98  0.0005111939032609029  0.443970216764021040.060000000000000005  -0.98  -0.0006515794342318291  0.441961293552375570.06666666666666667  -0.98  0.0004961363470934098  0.44004644703762870.07333333333333333  -0.98  0.00012048926499977247  0.438166765092654230.08  -0.98  0.000851414754972929  0.43628380768555010.08666666666666667  -0.98  -0.0003475374225216022  0.434371513607412050.09333333333333334  -0.98  0.0004763153781980737  0.432414711714118770.1  -0.98  -4.734242133744335e-05  0.430397106465335360.10666666666666667  -0.98  0.001043433986145678  0.42830984594056930.11333333333333334  -0.98  -0.00012512727779385923  0.42615089836202740.12000000000000001  -0.98  0.0006845178517448375  0.42392201279039160.12666666666666668  -0.98  0.00011559434138454694  0.421629545418674870.13333333333333333  -0.98  0.0008262288549223933  0.41928851177740470.14  -0.98  -0.0003257667147404601  0.416915217347757940.14666666666666667  -0.98  0.000714741040570245  0.41452389898810380.15333333333333335  -0.98  -3.617253167301038e-05  0.4121260830743970.16  -0.98  0.0009658495303878922  0.40972965914011150.16666666666666669  -0.98  -0.00031192270896980014  0.40734097709228450.17333333333333334  -0.98  0.0010275844171077507  0.404968350402073960.18000000000000002  -0.98  -6.601078908798064e-05  0.402623203169261370.18666666666666668  -0.98  0.0014579305626129452  0.40032022118407350.19333333333333336  -0.98  -0.0005767604701535072  0.39807204596999310.2  -0.98  0.001343004832938995  0.395884573547673650.2066666666666667  -0.98  0.0001421784012171406  0.393754697099909070.21333333333333335  -0.98  0.0015455045116683523  0.391673728051105560.22  -0.98  -0.00032186580041094337  0.389634388720776160.22666666666666668  -0.98  0.0017115774033115475  0.387635702762570640.23333333333333334  -0.98  -0.00017254063509680907  0.38568360072693090.24000000000000002  -0.98  0.002084030255291041  0.38378714775252440.24666666666666667  -0.98  -0.0005498007063503685  0.381954587002136750.25333333333333335  -0.98  0.00209916203118155  0.380192355575726170.26  -0.98  8.764289115438413e-05  0.378505515474429070.26666666666666666  -0.98  0.0021554420205689303  0.376897479970401130.2733333333333334  -0.98  -0.00034053696351617977  0.37537106196901490.28  -0.98  0.0019270442322008952  0.373926946010033570.2866666666666667  -0.98  2.771961924737575e-05  0.37256217292830530.29333333333333333  -0.98  0.0019150587013781492  0.37127857492538810.30000000000000004  -0.98  -0.0006368388906444976  0.370075147788772150.3066666666666667  -0.98  0.0019701556925234816  0.36894374507115740.31333333333333335  -0.98  -0.00014754814874964775  0.3678893716783950.32  -0.98  0.0024349716219918493  0.36690678412450510.32666666666666666  -0.98  -0.00041666953516304825  0.36599971123278780.33333333333333337  -0.98  0.002526233173690637  0.36526053400886410.34  -0.98  -6.586039425105174e-05  0.364805482377791030.3466666666666667  -0.98  0.0027199314011613356  0.364678583747623130.35333333333333333  -0.98  -0.0005694134867719952  0.364903256138138340.36000000000000004  -0.98  0.002596519934454395  0.36550901915714440.3666666666666667  -0.98  -2.8758086635384513e-05  0.366413618976097030.37333333333333335  -0.98  0.002679557635927923  0.36741805162253170.38  -0.98  -0.00051006520081935  0.36833544709050640.3866666666666667  -0.98  0.002993352468534801  0.369053972118174640.39333333333333337  -0.98  -0.00028246833927296483  0.369607726045915130.4  -0.98  0.0027517520539944436  0.37015414427077550.4066666666666667  -0.98  -0.00043839427608034174  0.370825767144590870.4133333333333334  -0.98  0.0026839421117367244  0.37165487128090840.42000000000000004  -0.98  2.745637861789572e-05  0.37257185672268510.4266666666666667  -0.98  0.0027914909681868204  0.373420844414837970.43333333333333335  -0.98  -3.925949504296002e-05  0.37404566320593660.44  -0.98  0.002719757976625499  0.3744199316668290.4466666666666667  -0.98  0.00012750649839749333  0.37466617173846120.45333333333333337  -0.98  0.002997008571020938  0.37493880337413680.46  -0.98  -0.0005796820453771731  0.37531767011975670.4666666666666667  -0.98  0.002992684463623086  0.375794122299293540.4733333333333334  -0.98  -0.00012875530872315507  0.37630591953995180.48000000000000004  -0.98  0.0029612073857889568  0.3767760560997060.4866666666666667  -0.98  -0.00043425355417049384  0.3771535129888030.49333333333333335  -0.98  0.0030738404663001343  0.377448155296990330.5  -0.98  -3.575091004830584e-05  0.377731152154750060.5066666666666667  -0.98  0.0031385493103474817  0.37809169507141860.5133333333333334  -0.98  -0.000429752969610987  0.37858478038605470.52  -0.98  0.0030359048350111933  0.379215905700780230.5266666666666667  -0.98  -0.0001429345291321808  0.37996974336120960.5333333333333333  -0.98  0.00293047052902328  0.38084655307637310.54  -0.98  -0.0003496076601745767  0.38186928290945370.5466666666666667  -0.98  0.002984344346476723  0.38305866865556140.5533333333333333  -0.98  5.989319986784831e-05  0.384403754803922860.56  -0.98  0.003050999082398435  0.385855641949611360.5666666666666667  -0.98  -0.0005975979028118453  0.38734932709341460.5733333333333334  -0.98  0.003004892905156651  0.388835524447148030.5800000000000001  -0.98  3.464788169016897e-05  0.39029843075505840.5866666666666667  -0.98  0.0030220316691404107  0.39174842012961060.5933333333333334  -0.98  -0.0001422332032573847  0.39319845754530570.6000000000000001  -0.98  0.003104182996796675  0.39464462170019350.6066666666666667  -0.98  -0.0002127475368966345  0.39606613553745210.6133333333333334  -0.98  0.003206651269056302  0.397442749902639060.62  -0.98  -0.00042752228474205806  0.398772149728346960.6266666666666667  -0.98  0.0033728213019911164  0.40007136475934750.6333333333333334  -0.98  2.2088697523038707e-05  0.401362808311417740.64  -0.98  0.0033562165231750584  0.402660432840329540.6466666666666667  -0.98  -0.00014173866669124461  0.40396983876466080.6533333333333333  -0.98  0.0032354239411122544  0.40530086753101760.66  -0.98  -5.8308727381603305e-05  0.406678742186851350.6666666666666667  -0.98  0.003082268392276712  0.40814241327058420.6733333333333333  -0.98  -0.00047811617965110394  0.409731126258416730.68  -0.98  0.003144883485622561  0.411468210702436170.6866666666666668  -0.98  0.00020267519403786892  0.413348321063426560.6933333333333334  -0.98  0.0031040692736588093  0.415328891021205350.7000000000000001  -0.98  -0.00011305582564688245  0.4173290586315680.7066666666666667  -0.98  0.0032346341685931916  0.41924729280670890.7133333333333334  -0.98  4.733081322850691e-05  0.421004821435356340.7200000000000001  -0.98  0.0033333866378812147  0.42259309061449420.7266666666666667  -0.98  -0.00036052673655282395  0.424077148073611470.7333333333333334  -0.98  0.0034269449914011312  0.42553503734830860.7400000000000001  -0.98  0.00016470840566580676  0.426990444201330250.7466666666666667  -0.98  0.0035159923265115035  0.428421595108997130.7533333333333334  -0.98  7.92953021695459e-05  0.42983748812291040.76  -0.98  0.0036436988172230274  0.43131484882736180.7666666666666667  -0.98  9.25395563040649e-05  0.43294512823794910.7733333333333334  -0.98  0.0036294456665402187  0.4347735928050440.78  -0.98  -0.0005416780728743739  0.436799907441513260.7866666666666667  -0.98  0.00365952214457219  0.43898020695312710.7933333333333333  -0.98  -0.0002332711683929394  0.44118498213680080.8  -0.98  0.0036064411935378443  0.443228053293425460.8066666666666668  -0.98  7.503077117815033e-05  0.44503964064830260.8133333333333334  -0.98  0.003594179318011669  0.44677063545375310.8200000000000001  -0.98  0.00011979885671857089  0.44862404993789420.8266666666666668  -0.98  0.0037012895771426036  0.450665808199779970.8333333333333334  -0.98  -0.0005230123700005123  0.45296091108559610.8400000000000001  -0.98  0.003958443869600559  0.45572758548701730.8466666666666667  -0.98  2.118948566331605e-05  0.45900431931883440.8533333333333334  -0.98  0.0039123431133228975  0.46241488302407250.8600000000000001  -0.98  1.166607106371745e-05  0.46578491640720770.8666666666666667  -0.98  0.00391571350492634  0.46927394574954060.8733333333333334  -0.98  0.00020131910542151902  0.4727181360844690.88  -0.98  0.0037308313286500195  0.47611220044403140.886