variables ="x","y","s","w"
zone f=point i=90,j=500
0.011111111111111112  -0.996  0.0  0.45962460394364280.022222222222222223  -0.996  0.0  0.45962460394364280.03333333333333333  -0.996  0.0  0.45962460394364280.044444444444444446  -0.996  0.0  0.45962460394364280.05555555555555556  -0.996  0.0  0.45962460394364280.06666666666666667  -0.996  0.0  0.45962460394364280.07777777777777778  -0.996  0.0  0.45962460394364280.08888888888888889  -0.996  0.0  0.45962460394364280.1  -0.996  0.0  0.45962460394364280.11111111111111112  -0.996  0.0  0.45962460394364280.12222222222222223  -0.996  0.0  0.45962460394364280.13333333333333333  -0.996  0.0  0.45962460394364280.14444444444444446  -0.996  0.0  0.45962460394364280.15555555555555556  -0.996  0.0  0.45962460394364280.16666666666666669  -0.996  0.0  0.45962460394364280.17777777777777778  -0.996  0.0  0.45962460394364280.18888888888888888  -0.996  0.0  0.45962460394364280.2  -0.996  0.0  0.45962460394364280.2111111111111111  -0.996  0.0  0.45962460394364280.22222222222222224  -0.996  0.0  0.45962460394364280.23333333333333334  -0.996  0.0  0.45962460394364280.24444444444444446  -0.996  0.0  0.45962460394364280.2555555555555556  -0.996  0.0  0.45962460394364280.26666666666666666  -0.996  0.0  0.45962460394364280.2777777777777778  -0.996  0.0  0.45962460394364280.2888888888888889  -0.996  0.0  0.45962460394364280.3  -0.996  0.0  0.45962460394364280.3111111111111111  -0.996  0.0  0.45962460394364280.32222222222222224  -0.996  0.0  0.45962460394364280.33333333333333337  -0.996  0.0  0.45962460394364280.34444444444444444  -0.996  0.0  0.45962460394364280.35555555555555557  -0.996  0.0  0.45962460394364280.3666666666666667  -0.996  0.0  0.45962460394364280.37777777777777777  -0.996  0.0  0.45962460394364280.3888888888888889  -0.996  0.0  0.45962460394364280.4  -0.996  0.0  0.45962460394364280.41111111111111115  -0.996  0.0  0.45962460394364280.4222222222222222  -0.996  0.0  0.45962460394364280.43333333333333335  -0.996  0.0  0.45962460394364280.4444444444444445  -0.996  0.0  0.45962460394364280.45555555555555555  -0.996  0.0  0.45962460394364280.4666666666666667  -0.996  0.0  0.45962460394364280.4777777777777778  -0.996  0.0  0.45962460394364280.48888888888888893  -0.996  0.0  0.45962460394364280.5  -0.996  0.0  0.45962460394364280.5111111111111112  -0.996  0.0  0.45962460394364280.5222222222222223  -0.996  0.0  0.45962460394364280.5333333333333333  -0.996  0.0  0.45962460394364280.5444444444444445  -0.996  0.0  0.45962460394364280.5555555555555556  -0.996  0.0  0.45962460394364280.5666666666666667  -0.996  0.0  0.45962460394364280.5777777777777778  -0.996  0.0  0.45962460394364280.5888888888888889  -0.996  0.0  0.45962460394364280.6  -0.996  0.0  0.45962460394364280.6111111111111112  -0.996  0.0  0.45962460394364280.6222222222222222  -0.996  0.0  0.45962460394364280.6333333333333333  -0.996  0.0  0.45962460394364280.6444444444444445  -0.996  0.0  0.45962460394364280.6555555555555556  -0.996  0.0  0.45962460394364280.6666666666666667  -0.996  0.0  0.45962460394364280.6777777777777778  -0.996  0.0  0.45962460394364280.6888888888888889  -0.996  0.0  0.45962460394364280.7000000000000001  -0.996  0.0  0.45962460394364280.7111111111111111  -0.996  0.0  0.45962460394364280.7222222222222222  -0.996  0.0  0.45962460394364280.7333333333333334  -0.996  0.0  0.45962460394364280.7444444444444445  -0.996  0.0  0.45962460394364280.7555555555555555  -0.996  0.0  0.45962460394364280.7666666666666667  -0.996  0.0  0.45962460394364280.7777777777777778  -0.996  0.0  0.45962460394364280.788888888888889  -0.996  0.0  0.45962460394364280.8  -0.996  0.0  0.45962460394364280.8111111111111111  -0.996  0.0  0.45962460394364280.8222222222222223  -0.996  0.0  0.45962460394364280.8333333333333334  -0.996  0.0  0.45962460394364280.8444444444444444  -0.996  0.0  0.45962460394364280.8555555555555556  -0.996  0.0  0.45962460394364280.8666666666666667  -0.996  0.0  0.45962460394364280.8777777777777778  -0.996  0.0  0.45962460394364280.888888888888889  -0.996  0.0  0.45962460394364280.9  -0.996  0.0  0.45962460394364280.9111111111111111  -0.996  0.0  0.45962460394364280.9222222222222223  -0.996  0.0  0.45962460394364280.9333333333333333  -0.996  0.0  0.45962460394364280.9444444444444445  -0.996  0.0  0.45962460394364280.9555555555555556  -0.996  0.0  0.45962460394364280.9666666666666667  -0.996  0.0  0.45962460394364280.9777777777777779  -0.996  0.0  0.45962460394364280.9888888888888889  -0.996  0.0  0.45962460394364281.0  -0.996  0.0  0.45962460394364280.011111111111111112  -0.992  0.0  0.45962460394364280.022222222222222223  -0.992  -0.0002215304509294865  0.45962460394364280.03333333333333333  -0.992  -0.0001678132537736288  0.45962460394364280.044444444444444446  -0.992  0.0007569277306821874  0.45962460394364280.05555555555555556  -0.992  -0.0008034012414679914  0.45962460394364280.06666666666666667  -0.992  0.0008742564293200631  0.45962460394364280.07777777777777778  -0.992  9.780767420635702e-05  0.45962460394364280.08888888888888889  -0.992  0.0014531717378129699  0.45962460394364280.1  -0.992  -0.000633477562665715  0.45962460394364280.11111111111111112  -0.992  0.0016427368506255404  0.45962460394364280.12222222222222223  -0.992  -5.039780882954215e-05  0.45962460394364280.13333333333333333  -0.992  0.0021750163668933222  0.45962460394364280.14444444444444446  -0.992  -0.0007848591318880097  0.45962460394364280.15555555555555556  -0.992  0.0021514880198534323  0.45962460394364280.16666666666666669  -0.992  -0.0001753372143546812  0.45962460394364280.17777777777777778  -0.992  0.002581450367889179  0.45962460394364280.18888888888888888  -0.992  -0.0007438281725653796  0.45962460394364280.2  -0.992  0.002364723853005367  0.45962460394364280.2111111111111111  -0.992  8.692686176364403e-06  0.45962460394364280.22222222222222224  -0.992  0.0027877550197808435  0.45962460394364280.23333333333333334  -0.992  -0.0007916153573038051  0.45962460394364280.24444444444444446  -0.992  0.0027803551142670446  0.45962460394364280.2555555555555556  -0.992  -0.00020161144241618065  0.45962460394364280.26666666666666666  -0.992  0.0031056161045968445  0.45962460394364280.2777777777777778  -0.992  -0.0005864176289782083  0.45962460394364280.2888888888888889  -0.992  0.0027705450531640657  0.45962460394364280.3  -0.992  -0.00015492392271699584  0.45962460394364280.3111111111111111  -0.992  0.002747786041800612  0.45962460394364280.32222222222222224  -0.992  -0.0008426453094052061  0.45962460394364280.33333333333333337  -0.992  0.0027714585149356406  0.45962460394364280.34444444444444444  -0.992  4.0975302635435416e-05  0.45962460394364280.35555555555555557  -0.992  0.0029833939125183556  0.45962460394364280.3666666666666667  -0.992  -0.0005980659357831094  0.45962460394364280.37777777777777777  -0.992  0.0030547202874029932  0.45962460394364280.3888888888888889  -0.992  1.9668848917804266e-05  0.45962460394364280.4  -0.992  0.0031704872505498756  0.45962460394364280.41111111111111115  -0.992  -0.0006928848144470799  0.45962460394364280.4222222222222222  -0.992  0.003232125182263505  0.45962460394364280.43333333333333335  -0.992  -1.5969692914284072e-05  0.45962460394364280.4444444444444445  -0.992  0.0032948049416346072  0.45962460394364280.45555555555555555  -0.992  -0.0005449355138784439  0.45962460394364280.4666666666666667  -0.992  0.0033413776831500612  0.45962460394364280.4777777777777778  -0.992  2.7565031217177153e-05  0.45962460394364280.48888888888888893  -0.992  0.003426285848630216  0.45962460394364280.5  -0.992  -0.0006544949689772184  0.45962460394364280.5111111111111112  -0.992  0.0033679190015725126  0.45962460394364280.5222222222222223  -0.992  1.8775944416936577e-05  0.45962460394364280.5333333333333333  -0.992  0.003339581042996953  0.45962460394364280.5444444444444445  -0.992  -0.0004973627261607793  0.45962460394364280.5555555555555556  -0.992  0.00339652100783395  0.45962460394364280.5666666666666667  -0.992  -3.271761384105999e-05  0.45962460394364280.5777777777777778  -0.992  0.003353151241694592  0.45962460394364280.5888888888888889  -0.992  -0.0005010645720012537  0.45962460394364280.6  -0.992  0.0033619642922431883  0.45962460394364280.6111111111111112  -0.992  5.4617835535630866e-05  0.45962460394364280.6222222222222222  -0.992  0.0033181837851680735  0.45962460394364280.6333333333333333  -0.992  -0.00040554755079508963  0.45962460394364280.6444444444444445  -0.992  0.0034766223527967054  0.45962460394364280.6555555555555556  -0.992  0.00010756916228624015  0.45962460394364280.6666666666666667  -0.992  0.0034017825698469933  0.45962460394364280.6777777777777778  -0.992  -0.0004318953199844811  0.45962460394364280.6888888888888889  -0.992  0.003508713880230328  0.459152638369310250.7000000000000001  -0.992  3.5400258416595075e-05  0.457861617380728560.7111111111111111  -0.992  0.003474864398451102  0.45644905027377370.7222222222222222  -0.992  -0.0006885801575097211  0.45498511378227420.7333333333333334  -0.992  0.0031466736984515358  0.453559295019951850.7444444444444445  -0.992  -6.594008541847845e-05  0.45219935517248310.7555555555555555  -0.992  0.0033874301302983293  0.45091689845724630.7666666666666667  -0.992  -0.0003386918555607862  0.44969644070226460.7777777777777778  -0.992  0.003506466425390642  0.4485155116526930.788888888888889  -0.992  -4.534063880190399e-05  0.44734713010452250.8  -0.992  0.003504151094728284  0.446173440829848560.8111111111111111  -0.992  0.00030370791679068694  0.444980929780036450.8222222222222223  -0.992  0.003162908965373478  0.44376008655328710.8333333333333334  -0.992  7.770708210952628e-05  0.442500283391562550.8444444444444444  -0.992  0.003215373243263446  0.44119523620769870.8555555555555556  -0.992  -0.00010839483256619713  0.43984219362543170.8666666666666667  -0.992  0.0033080092764651912  0.438440223669015860.8777777777777778  -0.992  1.545492506555923e-05  0.4369908864343370.888888888888889  -0.992  0.0033322277163021605  0.435500392010652050.9  -0.992  0.0005609510966633832  0.43397579336091940.9111111111111111  -0.992  0.0034370983068990777  0.43242377330845570.9222222222222223  -0.992  2.920149325676545e-05  0.430850014825437440.9333333333333333  -0.992  0.0032866380568969296  0.42925872657803460.9444444444444445  -0.992  9.994241538919135e-06  0.42765428718413390.9555555555555556  -0.992  0.0033465479770486643  0.42604308720918590.9666666666666667  -0.992  0.0001829737366086325  0.424433835779208570.9777777777777779  -0.992  0.003241419536637926  0.42283674752690940.9888888888888889  -0.992  0.0002921233198790336  0.421260153724199671.0  -0.992  -0.025142240681342604  0.4197085361917120.011111111111111112  -0.988  0.0  0.418182210016762260.022222222222222223  -0.988  -0.00010993929538435  0.416679827404884740.03333333333333333  -0.988  -6.623887569658554e-05  0.41520137699578050.044444444444444446  -0.988  -0.0002798378787486124  0.41374941107924630.05555555555555556  -0.988  0.00015238383509012964  0.412328492704980840.06666666666666667  -0.988  -0.000234128957311687  0.41094333136223250.07777777777777778  -0.988  -5.6976944482211744e-05  0.40959762074076490.08888888888888889  -0.988  -0.000374282387264849  0.40829409907101560.1  -0.988  0.0002087245118632263  0.40703492844645370.11111111111111112  -0.988  -0.00036389553504603134  0.40582176481326650.12222222222222223  -0.988  -1.1047702252859253e-05  0.40465648315969620.13333333333333333  -0.988  -0.000591294697342085  0.40354030018893010.14444444444444446  -0.988  0.000190923710825963  0.40247341164478270.15555555555555556  -0.988  -0.0005978619994167305  0.40145869973639450.16666666666666669  -0.988  2.246983279230565e-05  0.40049668779480740.17777777777777778  -0.988  -0.0007212667094662078  0.39958518018838540.18888888888888888  -0.988  0.00021819764759991228  0.398728833707759740.2  -0.988  -0.0006305352007817221  0.39792573913471660.2111111111111111  -0.988  -4.155708431319543e-05  0.397181314604894030.22222222222222224  -0.988  -0.0007010664408194259  0.396547040775097840.23333333333333334  -0.988  0.00019799256594662504  0.396082720178893570.24444444444444446  -0.988  -0.0006896283494850095  0.3958120378012680.2555555555555556  -0.988  -2.9922072396117746e-06  0.39575263098106860.26666666666666666  -0.988  -0.0007942587354637418  0.39592385949386060.2777777777777778  -0.988  0.00012938131664389955  0.396284099597405740.2888888888888889  -0.988  -0.0007019837746434554  0.39673482485017540.3  -0.988  -1.7931993525612765e-05  0.39718425609477690.3111111111111111  -0.988  -0.0007460617737776532  0.39757468238748720.32222222222222224  -0.988  0.00017163337132922434  0.39792002517221060.33333333333333337  -0.988  -0.0007436849758001883  0.3982901098007810.34444444444444444  -0.988  4.878549923948103e-06  0.39873685409880750.35555555555555557  -0.988  -0.000800488960851903  0.39926386432289430.3666666666666667  -0.988  0.00019523471389567236  0.399826664722157170.37777777777777777  -0.988  -0.000771479194707244  0.40034245164540050.3888888888888889  -0.988  -1.716004605551405e-05  0.40074013257589640.4  -0.988  -0.0007669045862321603  0.4010214916565030.41111111111111115  -0.988  0.0001977889065298127  0.401251768238697460.4222222222222222  -0.988  -0.0007268186743935952  0.401496810395971350.43333333333333335  -0.988  -5.341549382667834e-06  0.401786405329773170.4444444444444445  -0.988  -0.0007614135306567444  0.402114264565243350.45555555555555555  -0.988  0.00017217460231060182  0.40244898242064120.4666666666666667  -0.988  -0.0007316549228424098  0.402752389966596460.4777777777777778  -0.988  4.892682744702656e-06  0.40300383306269620.48888888888888893  -0.988  -0.0007624026920415713  0.40321696359423920.5  -0.988  0.0001737727451501302  0.40343471727911340.5111111111111112  -0.988  -0.0007966887281909015  0.40370266792438920.5222222222222223  -0.988  5.609648029044069e-06  0.40404387109290780.5333333333333333  -0.988  -0.0008110320762160817  0.40445890496243820.5444444444444445  -0.988  0.0001443335443217049  0.404946162496071740.5555555555555556  -0.988  -0.0008022117255699729  0.40551688809595980.5666666666666667  -0.988  2.8785560232436407e-05  0.40619052171468550.5777777777777778  -0.988  -0.0007959752177559359  0.40697834618698030.5888888888888889  -0.988  0.0001805450658278009  0.40787191592006840.6  -0.988  -0.0008375350895042273  0.408845718128794830.6111111111111112  -0.988  2.5351060313097736e-05  0.40987127996094520.6222222222222222  -0.988  -0.0008571715053741254  0.41093150094104760.6333333333333333  -0.988  0.00013107857607370333  0.41202441363045060.6444444444444445  -0.988  -0.0008576278538276656  0.413154392259866940.6555555555555556  -0.988  5.132105618841886e-06  0.41431941885566220.6666666666666667  -0.988  -0.0008669848437784869  0.415506349168333460.6777777777777778  -0.988  0.00011332595271887294  0.41669844126232640.6888888888888889  -0.988  -0.000902369672801653  0.41788719844090930.7000000000000001  -0.988  -8.399816620372163e-07  0.419076131396788560.7111111111111111  -0.988  -0.0009157292942155785  0.420272858305030250.7222222222222222  -0.988  7.268870738336291e-05  0.42147877780520.7333333333333334  -0.988  -0.0008604615113142043  0.422687901425823240.7444444444444445  -0.988  -5.927534621563839e-05  0.42389565936915130.7555555555555555  -0.988  -0.0009017927716577445  0.425107530643193570.7666666666666667  -0.988  7.861927582926691e-05  0.426338621640772460.7777777777777778  -0.988  -0.0009383731689147661  0.42760612417212120.788888888888889  -0.988  -1.902244097495315e-05  0.42892296469315410.8  -0.988  -0.000947226993926464  0.430295918244607060.8111111111111111  -0.988  6.053657993202196e-06  0.43172329460654420.8222222222222223  -0.988  -0.0009109042649949619  0.433188143130993960.8333333333333334  -0.988  1.3378385221405914e-05  0.43465322376854340.8444444444444444  -0.988  -0.0009479877767712072  0.436070496641771830.8555555555555556  -0.988  9.724211448123722e-05  0.437407461374792750.8666666666666667  -0.988  -0.000979716088223249  0.43866952982522480.8777777777777778  -0.988  -3.0505705827245218e-06  0.43989025550267880.888888888888889  -0.988  -0.0009715728981738322  0.441092920410040060.9  -0.988  -8.545320040762066e-05  0.442268761688720870.9111111111111111  -0.988  -0.0009530294524884192  0.44340352046108790.9222222222222223  -0.988  2.724588409041531e-05  0.444516545381727470.9333333333333333  -0.988  -0.0009634341981030103  0.44565478584978490.9444444444444445  -0.988  5.835253619856461e-05  0.4468542553241090.9555555555555556  -0.988  -0.000981071586861297  0.4481296921180710.9666666666666667  -0.988  7.461303903685013e-05  0.44948987501175180.9777777777777779  -0.988  -0.0010245333744037912  0.450919877243290860.9888888888888889  -0.988  7.975824476186783e-05  0.45234524691439551.0  -0.988  -0.005477185805023005  0.45366996417644380.011111111111111112  -0.984  0.0  0.454879933540674240.022222222222222223  -0.984  -4.0169407076819005e-05  0.456061716986983560.03333333333333333  -0.984  -0.00013061538942173094  0.457291421901665660.044444444444444446  -0.984  0.0025258981187919983  0.45858224167883640.05555555555555556  -0.984  -0.0021480682721570408  0.45999241092636590.06666666666666667  -0.984  0.0026160541324395784  0.461654016423006350.07777777777777778  -0.984  0.00039702359322426917  0.46356498745296510.08888888888888889  -0.984  0.00431501689240076  0.465539538972642330.1  -0.984  -0.002020295152526808  0.4675348615818170.11111111111111112  -0.984  0.004670919692574327  0.46961759941912340.12222222222222223  -0.984  -7.443495281103851e-05  0.471668929372921650.13333333333333333  -0.984  0.006555624873036099  0.47369712273749760.14444444444444446  -0.984  -0.002266641327253341  0.47581168589138010.15555555555555556  -0.984  0.006516114703910945  0.477887772966389730.16666666666666669  -0.984  -0.0004748979822772856  0.479835009473133460.17777777777777778  -0.984  0.007837853531379583  0.48161942265343650.18888888888888888  -0.984  -0.002283128922749287  0.48321329352915330.2  -0.984  0.007070468185765822  0.484631414148591570.2111111111111111  -0.984  0.00015709576656313664  0.485840163417020850.22222222222222224  -0.984  0.008130999463612442  0.48682236444275760.23333333333333334  -0.984  -0.00233603307596181  0.487552081050605660.24444444444444446  -0.984  0.008080151784486934  0.48797057805478980.2555555555555556  -0.984  -0.00042487408935084345  0.487977170364553740.26666666666666666  -0.984  0.009086627513111692  0.487412280240924030.2777777777777778  -0.984  -0.0016466771104927127  0.48608360956695110.2888888888888889  -0.984  0.008072905130958149  0.483780499146189760.3  -0.984  -0.0002179787208674841  0.48030042987460270.3111111111111111  -0.984  0.008188547640825175  0.47541085727549360.32222222222222224  -0.984  -0.0023342447864622483  0.46871987019264230.33333333333333337  -0.984  0.008211919789174906  0.45962460394364280.34444444444444444  -0.984  5.9901727231800835e-05  0.45962460394364280.35555555555555557  -0.984  0.008836704656736652  0.45873608980950460.3666666666666667  -0.984  -0.001907687566438164  0.456267492541527760.37777777777777777  -0.984  0.008890580263026412  0.45362046997223590.3888888888888889  -0.984  0.00011458941813688  0.45095036864859980.4  -0.984  0.009096907668231118  0.448421832078125750.41111111111111115  -0.984  -0.0021073465220902707  0.44607446993007080.4222222222222222  -0.984  0.009074892795750276  0.44391577143974830.43333333333333335  -0.984  -9.749530458112991e-06  0.44190408204758620.4444444444444445  -0.984  0.009335608577132361  0.43998675228160760.45555555555555555  -0.984  -0.0017186366297741386  0.43810522652417490.4666666666666667  -0.984  0.009335159644192207  0.436221352398254550.4777777777777778  -0.984  4.640639290375958e-05  0.43430931579440780.48888888888888893  -0.984  0.009643082917171527  0.432354049020837850.5  -0.984  -0.0019483727247917198  0.430339325028135540.5111111111111112  -0.984  0.009645935102588939  0.428256295503911030.5222222222222223  -0.984  2.506740879656547e-06  0.42610288552318520.5333333333333333  -0.984  0.009647987125232465  0.423880829000751250.5444444444444445  -0.984  -0.0015118422995848068  0.421596468221099530.5555555555555556  -0.984  0.00972763339015691  0.41926472041125060.5666666666666667  -0.984  -0.00018944973282128058  0.416901753046985240.5777777777777778  -0.984  0.009615593842010321  0.414521652840812660.5888888888888889  -0.984  -0.0016644484698588207  0.41213582885769730.6  -0.984  0.009767882023200638  0.40975210555771220.6111111111111112  -0.984  6.190927202091689e-06  0.407376767604898160.6222222222222222  -0.984  0.009748554274092217  0.40501800909471350.6333333333333333  -0.984  -0.0012813802209199698  0.402687056917299560.6444444444444445  -0.984  0.010083135207974804  0.400398359672959450.6555555555555556  -0.984  0.00021161568837497428  0.398164373924561050.6666666666666667  -0.984  0.009975016665374396  0.395990938361179270.6777777777777778  -0.984  -0.0012645417660309256  0.39387502519184110.6888888888888889  -0.984  0.010311213121939413  0.39180807749340450.7000000000000001  -0.984  6.005637059008527e-05  0.3897828800267540.7111111111111111  -0.984  0.01029807595771049  0.387798373102792140.7222222222222222  -0.984  -0.0016161377811353328  0.38586028460658670.7333333333333334  -0.984  0.009431700526734586  0.383977460644690240.7444444444444445  -0.984  6.535373808141487e-05  0.382158004030777040.7555555555555555  -0.984  0.010056030004658245  0.38040830745488630.7666666666666667  -0.984  -0.0009752126448898985  0.37873345819349670.7777777777777778  -0.984  0.010440166297464505  0.377136951904961440.788888888888889  -0.984  -4.662822290808383e-05  0.37562170139290310.8  -0.984  0.010497212218105727  0.37418849844709570.8111111111111111  -0.984  0.0005947540618038401  0.37283448903344930.8222222222222223  -0.984  0.009684529642203198  0.37156145963594170.8333333333333334  -0.984  9.219155608737316e-05  0.370368352352427270.8444444444444444  -0.984  0.00992045652100173  0.36924706020529880.8555555555555556  -0.984  -0.0005721586472668746  0.368202420758997730.8666666666666667  -0.984  0.010212210854664403  0.36722922554130560.8777777777777778  -0.984  3.924049415292817e-05  0.366331063650568330.888888888888889  -0.984  0.010233411159976573  0.36559861374114890.9  -0.984  0.0014247445978528466  0.365146020569733830.9111111111111111  -0.984  0.010400056827336895  0.365016591333046040.9222222222222223  -0.984  -3.421466887823895e-05  0.36523347935136910.9333333333333333  -0.984  0.010110076646987282  0.365825823239848140.9444444444444445  -0.984  -0.0001696501242040706  0.366712893272817750.9555555555555556  -0.984  0.010272416847047074  0.367699191386540340.9666666666666667  -0.984  0.00011002039386229699  0.368601052809109650.9777777777777779  -0.984  0.010182748160226886  0.369308481034497760.9888888888888889  -0.984  0.0002976697316821822  0.369854869000304071.0  -0.984  -0.004611563995583644  0.370394860638729730.011111111111111112  -0.98  0.0  0.37105871340901320.022222222222222223  -0.98  -1.4670304298429774e-05  0.371878139830540740.03333333333333333  -0.98  9.704018634966804e-05  0.372784575409329130.044444444444444446  -0.98  -0.0017753168905559045  0.37362446703814010.05555555555555556  -0.98  0.001574533195686408  0.374243961250524450.06666666666666667  -0.98  -0.0018470538177315211  0.37461702048260870.07777777777777778  -0.98  -0.00035607083275921244  0.374864281009499370.08888888888888889  -0.98  -0.0030482402109708955  0.375137857943763750.1  -0.98  0.0013882169139949974  0.37551643586877280.11111111111111112  -0.98  -0.003306114378034492  0.375991483072160570.12222222222222223  -0.98  7.847910286487888e-05  0.37650162572058920.13333333333333333  -0.98  -0.004562902171673874  0.3769709520223110.14444444444444446  -0.98  0.0016446036699528004  0.377349206243233760.15555555555555556  -0.98  -0.004510676190960641  0.377646175869086440.16666666666666669  -0.98  0.0003125834510653679  0.377932076758002440.17777777777777778  -0.98  -0.005421876908270952  0.37829486561048010.18888888888888888  -0.98  0.0015215098891438988  0.378788764419320630.2  -0.98  -0.0048935622972855666  0.37941919291673350.2111111111111111  -0.98  -0.00017520870498552088  0.380171056568140.22222222222222224  -0.98  -0.005679542934543444  0.38104465230715960.23333333333333334  -0.98  0.0016693084229313683  0.382062663263004140.24444444444444446  -0.98  -0.005617165025449968  0.38324559354236370.2555555555555556  -0.98  0.00025142846934959765  0.384582686522174030.26666666666666666  -0.98  -0.006369167209472121  0.386025748570613670.2777777777777778  -0.98  0.0010514201668008491  0.387510678985718840.2888888888888889  -0.98  -0.005682077580121888  0.388988847004375860.3  -0.98  0.00022201336050500778  0.39044461559502960.3111111111111111  -0.98  -0.005747029263355114  0.39188815178985950.32222222222222224  -0.98  0.0016776212349949233  0.393332186731254250.33333333333333337  -0.98  -0.005758947565307385  0.39477282114739940.34444444444444444  -0.98  -6.330602498399538e-05  0.39618955054388520.35555555555555557  -0.98  -0.006215527903970679  0.39756238893463120.3666666666666667  -0.98  0.0012890891721109093  0.39888901603323480.37777777777777777  -0.98  -0.006268432049119527  0.400186166192971260.3888888888888889  -0.98  -0.00011113139103411042  0.401475873115891170.4  -0.98  -0.006345628721551699  0.402771827796680.41111111111111115  -0.98  0.0015049216845438383  0.40407948108325510.4222222222222222  -0.98  -0.006280258892673878  0.40540844670133420.43333333333333335  -0.98  9.179704407154911e-06  0.406783478165855030.4444444444444445  -0.98  -0.006443880354051035  0.40824285049275590.45555555555555555  -0.98  0.001170109702871018  0.40982514979569690.4666666666666667  -0.98  -0.00641167741956822  0.41155333080709670.4777777777777778  -0.98  -3.434165256987738e-05  0.41342216664900860.48888888888888893  -0.98  -0.006667556261308935  0.41538983247884030.5  -0.98  0.0014053295472231657  0.417376829950262430.5111111111111112  -0.98  -0.00670941685735579  0.419283318933739550.5222222222222223  -0.98  -9.617440460982042e-06  0.421031861891206560.5333333333333333  -0.98  -0.006717293192784037  0.42261414184399130.5444444444444445  -0.98  0.0009868769339939894  0.424094268559252250.5555555555555556  -0.98  -0.00677772183982217  0.425549065971297660.5666666666666667  -0.98  0.00017917362596562474  0.42700173205682780.5777777777777778  -0.98  -0.006661587014432852  0.42843062956925760.5888888888888889  -0.98  0.0012239726155011759  0.42984441836243970.6  -0.98  -0.006752387472977432  0.43131849252748640.6111111111111112  -0.98  -8.166103368470695e-06  0.432942774817839270.6222222222222222  -0.98  -0.006717288325671162  0.43476169462630870.6333333333333333  -0.98  0.0008806189155916623  0.43677475260542570.6444444444444445  -0.98  -0.006991219094903655  0.4389386288306030.6555555555555556  -0.98  -0.00020115321350245476  0.44112577966614710.6666666666666667  -0.98  -0.006868514368164727  0.443152942036484370.6777777777777778  -0.98  0.0008669639916562514  0.444951504461200630.6888888888888889  -0.98  -0.007080684957863973  0.44667012021771150.7000000000000001  -0.98  -6.309335830127854e-05  0.44850866500928140.7111111111111111  -0.98  -0.007074741176664572  0.45053200354629290.7222222222222222  -0.98  0.0011402551419398654  0.452804271914540530.7333333333333334  -0.98  -0.006469000550805332  0.45554070390531230.7444444444444445  -0.98  -3.060576507686493e-05  0.45877951211171420.7555555555555555  -0.98  -0.006975501950063552  0.462150295372185660.7666666666666667  -0.98  0.0007365331581276667  0.465481491301925570.7777777777777778  -0.98  -0.007251745763105198  0.468930207706128250.788888888888889  -0.98  6.582722175401269e-06  0.47233444665116430.8  -0.98  -0.007289715672343992  0.4756887971857910.8111111111111111  -0.98  -0.00046939280706789386  0.479234633750132750.8222222222222223  -0.98  -0.006731771693750514  0.482722394260425070.8333333333333334  -0.98  -1.3512832494039877e-05  0.485892666565841070.8444444444444444  -0.98  -0.0068475771546857075  0.488705898792382350.8555555555555556  -0.98  0.0004461699008435282  0.49119932346464870.8666666666666667  -0.98  -0.0070251062577283765  0.493495143385456750.8777777777777778  -0.98  -4.941398091918408e-05  0.49559286755762790.888888888888889  -0.98  -0.007046135033367219  0.49748009240297930.9  -0.98  -0.0010081614315061895  0.499129709088486750.9111111111111111  -0.98  -0.007190709905863238  0.50044816569214680.9222222222222223  -0.98  6.686138096078809e-06  0.50127980564846740.9333333333333333  -0.98  -0.006983410263431456  0.50136272324550820.9444444444444445  -0.98  0.00011608851971555494  0.50037269767880780.9555555555555556  -0.98  -0.007115385874470792  0.497940355466219730.9666666666666667  -0.98  -7.318202527318519e-05  0.493644710200319860.9777777777777779  -0.98  -0.0070517258733784  0.48684583215545760.9888888888888889  -0.98  -0.00018238803219168098  0.47624561675839581.0  -0.98  -0.0006042906462252348  0.45962460394364280.011111111111111112  -0.976  0.0  0.45962460394364280.022222222222222223  -0.976  -4.5902201611916766e-05  0.458417905023973450.03333333333333333  -0.976  -8.795272870759099e-05  0.45496438920160910.044444444444444446  -0.976  0.0021331685867383952  0.451364506517660360.05555555555555556  -0.976  -0.001504811015838465  0.447869463672166460.06666666666666667  -0.976  0.00237517041808603  0.44468240158393550.07777777777777778  -0.976  0.00018680353221501127  0.44182325447986950.08888888888888889  -0.976  0.003789330177757002  0.439271936672729240.1  -0.976  -0.0016562527283967262  0.43694981209209230.11111111111111112  -0.976  0.004004232244274352  0.4347689742541570.12222222222222223  -0.976  -1.9115480443295407e-05  0.432637794537687860.13333333333333333  -0.976  0.005771771630127001  0.430497194576407560.14444444444444446  -0.976  -0.0017766012516676844  0.4283118973161680.15555555555555556  -0.976  0.005870142056027595  0.426067677086391370.16666666666666669  -0.976  -0.00051764787