variables ="x","y","s","w"
zone f=point i=150,j=300
0.006666666666666667  -0.9933333333333333  0.0  0.45961594657453780.013333333333333334  -0.9933333333333333  0.0  0.45961594657453780.02  -0.9933333333333333  0.0  0.45961594657453780.02666666666666667  -0.9933333333333333  0.0  0.45961594657453780.03333333333333333  -0.9933333333333333  0.0  0.45961594657453780.04  -0.9933333333333333  0.0  0.45961594657453780.04666666666666667  -0.9933333333333333  0.0  0.45961594657453780.05333333333333334  -0.9933333333333333  0.0  0.45961594657453780.060000000000000005  -0.9933333333333333  0.0  0.45961594657453780.06666666666666667  -0.9933333333333333  0.0  0.45961594657453780.07333333333333333  -0.9933333333333333  0.0  0.45961594657453780.08  -0.9933333333333333  0.0  0.45961594657453780.08666666666666667  -0.9933333333333333  0.0  0.45961594657453780.09333333333333334  -0.9933333333333333  0.0  0.45961594657453780.1  -0.9933333333333333  0.0  0.45961594657453780.10666666666666667  -0.9933333333333333  0.0  0.45961594657453780.11333333333333334  -0.9933333333333333  0.0  0.45961594657453780.12000000000000001  -0.9933333333333333  0.0  0.45961594657453780.12666666666666668  -0.9933333333333333  0.0  0.45961594657453780.13333333333333333  -0.9933333333333333  0.0  0.45961594657453780.14  -0.9933333333333333  0.0  0.45961594657453780.14666666666666667  -0.9933333333333333  0.0  0.45961594657453780.15333333333333335  -0.9933333333333333  0.0  0.45961594657453780.16  -0.9933333333333333  0.0  0.45961594657453780.16666666666666669  -0.9933333333333333  0.0  0.45961594657453780.17333333333333334  -0.9933333333333333  0.0  0.45961594657453780.18000000000000002  -0.9933333333333333  0.0  0.45961594657453780.18666666666666668  -0.9933333333333333  0.0  0.45961594657453780.19333333333333336  -0.9933333333333333  0.0  0.45961594657453780.2  -0.9933333333333333  0.0  0.45961594657453780.2066666666666667  -0.9933333333333333  0.0  0.45961594657453780.21333333333333335  -0.9933333333333333  0.0  0.45961594657453780.22  -0.9933333333333333  0.0  0.45961594657453780.22666666666666668  -0.9933333333333333  0.0  0.45961594657453780.23333333333333334  -0.9933333333333333  0.0  0.45961594657453780.24000000000000002  -0.9933333333333333  0.0  0.45961594657453780.24666666666666667  -0.9933333333333333  0.0  0.45961594657453780.25333333333333335  -0.9933333333333333  0.0  0.45961594657453780.26  -0.9933333333333333  0.0  0.45961594657453780.26666666666666666  -0.9933333333333333  0.0  0.45961594657453780.2733333333333334  -0.9933333333333333  0.0  0.45961594657453780.28  -0.9933333333333333  0.0  0.45961594657453780.2866666666666667  -0.9933333333333333  0.0  0.45961594657453780.29333333333333333  -0.9933333333333333  0.0  0.45961594657453780.30000000000000004  -0.9933333333333333  0.0  0.45961594657453780.3066666666666667  -0.9933333333333333  0.0  0.45961594657453780.31333333333333335  -0.9933333333333333  0.0  0.45961594657453780.32  -0.9933333333333333  0.0  0.45961594657453780.32666666666666666  -0.9933333333333333  0.0  0.45961594657453780.33333333333333337  -0.9933333333333333  0.0  0.45961594657453780.34  -0.9933333333333333  0.0  0.45961594657453780.3466666666666667  -0.9933333333333333  0.0  0.45961594657453780.35333333333333333  -0.9933333333333333  0.0  0.45961594657453780.36000000000000004  -0.9933333333333333  0.0  0.45961594657453780.3666666666666667  -0.9933333333333333  0.0  0.45961594657453780.37333333333333335  -0.9933333333333333  0.0  0.45961594657453780.38  -0.9933333333333333  0.0  0.45961594657453780.3866666666666667  -0.9933333333333333  0.0  0.45961594657453780.39333333333333337  -0.9933333333333333  0.0  0.45961594657453780.4  -0.9933333333333333  0.0  0.45961594657453780.4066666666666667  -0.9933333333333333  0.0  0.45961594657453780.4133333333333334  -0.9933333333333333  0.0  0.45961594657453780.42000000000000004  -0.9933333333333333  0.0  0.45961594657453780.4266666666666667  -0.9933333333333333  0.0  0.45961594657453780.43333333333333335  -0.9933333333333333  0.0  0.45961594657453780.44  -0.9933333333333333  0.0  0.45961594657453780.4466666666666667  -0.9933333333333333  0.0  0.45961594657453780.45333333333333337  -0.9933333333333333  0.0  0.45961594657453780.46  -0.9933333333333333  0.0  0.45961594657453780.4666666666666667  -0.9933333333333333  0.0  0.45961594657453780.4733333333333334  -0.9933333333333333  0.0  0.45961594657453780.48000000000000004  -0.9933333333333333  0.0  0.45961594657453780.4866666666666667  -0.9933333333333333  0.0  0.45961594657453780.49333333333333335  -0.9933333333333333  0.0  0.45961594657453780.5  -0.9933333333333333  0.0  0.45961594657453780.5066666666666667  -0.9933333333333333  0.0  0.45961594657453780.5133333333333334  -0.9933333333333333  0.0  0.45961594657453780.52  -0.9933333333333333  0.0  0.45961594657453780.5266666666666667  -0.9933333333333333  0.0  0.45961594657453780.5333333333333333  -0.9933333333333333  0.0  0.45961594657453780.54  -0.9933333333333333  0.0  0.45961594657453780.5466666666666667  -0.9933333333333333  0.0  0.45961594657453780.5533333333333333  -0.9933333333333333  0.0  0.45961594657453780.56  -0.9933333333333333  0.0  0.45961594657453780.5666666666666667  -0.9933333333333333  0.0  0.45961594657453780.5733333333333334  -0.9933333333333333  0.0  0.45961594657453780.5800000000000001  -0.9933333333333333  0.0  0.45961594657453780.5866666666666667  -0.9933333333333333  0.0  0.45961594657453780.5933333333333334  -0.9933333333333333  0.0  0.45961594657453780.6000000000000001  -0.9933333333333333  0.0  0.45961594657453780.6066666666666667  -0.9933333333333333  0.0  0.45961594657453780.6133333333333334  -0.9933333333333333  0.0  0.45961594657453780.62  -0.9933333333333333  0.0  0.45961594657453780.6266666666666667  -0.9933333333333333  0.0  0.45961594657453780.6333333333333334  -0.9933333333333333  0.0  0.45961594657453780.64  -0.9933333333333333  0.0  0.45961594657453780.6466666666666667  -0.9933333333333333  0.0  0.45961594657453780.6533333333333333  -0.9933333333333333  0.0  0.45961594657453780.66  -0.9933333333333333  0.0  0.45961594657453780.6666666666666667  -0.9933333333333333  0.0  0.45961594657453780.6733333333333333  -0.9933333333333333  0.0  0.45961594657453780.68  -0.9933333333333333  0.0  0.45961594657453780.6866666666666668  -0.9933333333333333  0.0  0.45961594657453780.6933333333333334  -0.9933333333333333  0.0  0.45961594657453780.7000000000000001  -0.9933333333333333  0.0  0.45961594657453780.7066666666666667  -0.9933333333333333  0.0  0.45961594657453780.7133333333333334  -0.9933333333333333  0.0  0.45961594657453780.7200000000000001  -0.9933333333333333  0.0  0.45961594657453780.7266666666666667  -0.9933333333333333  0.0  0.45961594657453780.7333333333333334  -0.9933333333333333  0.0  0.45961594657453780.7400000000000001  -0.9933333333333333  0.0  0.45961594657453780.7466666666666667  -0.9933333333333333  0.0  0.45961594657453780.7533333333333334  -0.9933333333333333  0.0  0.45961594657453780.76  -0.9933333333333333  0.0  0.45961594657453780.7666666666666667  -0.9933333333333333  0.0  0.45961594657453780.7733333333333334  -0.9933333333333333  0.0  0.45961594657453780.78  -0.9933333333333333  0.0  0.45961594657453780.7866666666666667  -0.9933333333333333  0.0  0.45961594657453780.7933333333333333  -0.9933333333333333  0.0  0.45961594657453780.8  -0.9933333333333333  0.0  0.45961594657453780.8066666666666668  -0.9933333333333333  0.0  0.45961594657453780.8133333333333334  -0.9933333333333333  0.0  0.45961594657453780.8200000000000001  -0.9933333333333333  0.0  0.45961594657453780.8266666666666668  -0.9933333333333333  0.0  0.45961594657453780.8333333333333334  -0.9933333333333333  0.0  0.45961594657453780.8400000000000001  -0.9933333333333333  0.0  0.45961594657453780.8466666666666667  -0.9933333333333333  0.0  0.45961594657453780.8533333333333334  -0.9933333333333333  0.0  0.45961594657453780.8600000000000001  -0.9933333333333333  0.0  0.45961594657453780.8666666666666667  -0.9933333333333333  0.0  0.45961594657453780.8733333333333334  -0.9933333333333333  0.0  0.45961594657453780.88  -0.9933333333333333  0.0  0.45961594657453780.8866666666666667  -0.9933333333333333  0.0  0.45961594657453780.8933333333333334  -0.9933333333333333  0.0  0.45961594657453780.9  -0.9933333333333333  0.0  0.45961594657453780.9066666666666667  -0.9933333333333333  0.0  0.45961594657453780.9133333333333334  -0.9933333333333333  0.0  0.45961594657453780.92  -0.9933333333333333  0.0  0.45961594657453780.9266666666666667  -0.9933333333333333  0.0  0.45961594657453780.9333333333333333  -0.9933333333333333  0.0  0.45961594657453780.9400000000000001  -0.9933333333333333  0.0  0.45961594657453780.9466666666666668  -0.9933333333333333  0.0  0.45961594657453780.9533333333333334  -0.9933333333333333  0.0  0.45961594657453780.9600000000000001  -0.9933333333333333  0.0  0.45961594657453780.9666666666666667  -0.9933333333333333  0.0  0.45961594657453780.9733333333333334  -0.9933333333333333  0.0  0.45961594657453780.9800000000000001  -0.9933333333333333  0.0  0.45961594657453780.9866666666666667  -0.9933333333333333  0.0  0.45961594657453780.9933333333333334  -0.9933333333333333  0.0  0.45961594657453781.0  -0.9933333333333333  0.0  0.45961594657453780.006666666666666667  -0.9866666666666667  0.0  0.45961594657453780.013333333333333334  -0.9866666666666667  0.0003405113003997731  0.459143999889544240.02  -0.9866666666666667  0.0003251798848994111  0.45785273255509160.02666666666666667  -0.9866666666666667  -1.974082618900569e-05  0.45643997511897970.03333333333333333  -0.9866666666666667  0.00030738118749663564  0.454975924291161570.04  -0.9866666666666667  -0.00036016276411574683  0.453549905654234750.04666666666666667  -0.9866666666666667  0.0001724383865724216  0.452189556756735670.05333333333333334  -0.9866666666666667  -0.0010055797121923617  0.45090638810563690.060000000000000005  -0.9866666666666667  -0.00017515332615353506  0.449684865502210650.06666666666666667  -0.9866666666666667  -0.0011432897826370648  0.44850251522027080.07333333333333333  -0.9866666666666667  6.639151633564004e-05  0.447332385267867060.08  -0.9866666666666667  -0.001243472847017281  0.446156662868213260.08666666666666667  -0.9866666666666667  0.00026401309961760204  0.444961888567515060.09333333333333334  -0.9866666666666667  -0.0016977113781878835  0.44373861483388060.1  -0.9866666666666667  -1.0555913996710561e-05  0.442476279598427450.10666666666666667  -0.9866666666666667  -0.0017550014027175843  0.44116866082309740.11333333333333334  -0.9866666666666667  0.0004961314622883046  0.43981306967405560.12000000000000001  -0.9866666666666667  -0.0019510898006884604  0.438408630960872740.12666666666666668  -0.9866666666666667  0.0003549598805804772  0.436956946852910030.13333333333333333  -0.9866666666666667  -0.002397899617465155  0.435464259808646560.14  -0.9866666666666667  9.966336678816695e-05  0.43393763770663130.14666666666666667  -0.9866666666666667  -0.0026615180205678706  0.43238376644336830.15333333333333335  -0.9866666666666667  -0.00010431951611400796  0.43080833154215770.16  -0.9866666666666667  -0.002294875386252782  0.429215543072057840.16666666666666669  -0.9866666666666667  0.00047673344053379956  0.42760977942064230.17333333333333334  -0.9866666666666667  -0.0022503206681388226  0.425997420445700270.18000000000000002  -0.9866666666666667  -0.00020649183879085491  0.4243871524218530.18666666666666668  -0.9866666666666667  -0.0019480467218452122  0.42278915929321010.19333333333333336  -0.9866666666666667  0.00020581626594030601  0.42121174281420620.2  -0.9866666666666667  -0.0019719380465797894  0.41965936541060260.2066666666666667  -0.9866666666666667  0.0001929297000257205  0.41813233333938820.21333333333333335  -0.9866666666666667  -0.0022383031923075055  0.416629295882062930.22  -0.9866666666666667  0.000362968040306795  0.415150237169281230.22666666666666668  -0.9866666666666667  -0.0020877880202660936  0.413697701020563860.23333333333333334  -0.9866666666666667  -0.0001745169781256911  0.412276240318207370.24000000000000002  -0.9866666666666667  -0.0019437517312857456  0.41089055688776740.24666666666666667  -0.9866666666666667  0.0002908214972229585  0.409544341735064430.25333333333333335  -0.9866666666666667  -0.001847337497210964  0.408240334028684260.26  -0.9866666666666667  -9.22695225610439e-06  0.406980698918163960.26666666666666666  -0.9866666666666667  -0.0022116339778258504  0.405767097002172060.2733333333333334  -0.9866666666666667  0.000250636483714086  0.40460140833891460.28  -0.9866666666666667  -0.002618260507395025  0.4034848573516460.2866666666666667  -0.9866666666666667  7.858473665796334e-05  0.402417650611164130.29333333333333333  -0.9866666666666667  -0.0027729298351723084  0.40140267652470410.30000000000000004  -0.9866666666666667  5.024453551184365e-05  0.400440469095357630.3066666666666667  -0.9866666666666667  -0.0025840242527625304  0.399528847267358660.31333333333333335  -0.9866666666666667  -3.345758986255259e-05  0.39867246715770290.32  -0.9866666666666667  -0.00235777883473125  0.397869431424257960.32666666666666666  -0.9866666666666667  0.0002151104567497155  0.39712514101406780.33333333333333337  -0.9866666666666667  -0.0023506914728385823  0.39649093587131720.34  -0.9866666666666667  -0.00011855249658096153  0.396026446438557670.3466666666666667  -0.9866666666666667  -0.002332644443330525  0.395755272708098070.35333333333333333  -0.9866666666666667  0.00015366341809641823  0.39569500158776290.36000000000000004  -0.9866666666666667  -0.0024500792034080113  0.39586497021217280.3666666666666667  -0.9866666666666667  -3.632084146273473e-05  0.39622369789355720.37333333333333335  -0.9866666666666667  -0.0025223668555492016  0.396672906813011150.38  -0.9866666666666667  -6.991308054665507e-05  0.397121008610439360.3866666666666667  -0.9866666666666667  -0.0020253938416048027  0.397510413517153550.39333333333333337  -0.9866666666666667  -0.00043573351084887204  0.397855013260289160.4  -0.9866666666666667  -0.0024590709773379183  0.398224461556535240.4066666666666667  -0.9866666666666667  0.00039262992781466535  0.39867053805162490.4133333333333334  -0.9866666666666667  -0.0024816894393609244  0.399196817766949540.42000000000000004  -0.9866666666666667  4.4715077466783356e-05  0.39975890106077980.4266666666666667  -0.9866666666666667  -0.002469994214148517  0.40027415698713180.43333333333333335  -0.9866666666666667  0.000798054240913754  0.40067163713895620.44  -0.9866666666666667  -0.0026491600412052708  0.40095308573979560.4466666666666667  -0.9866666666666667  6.165138935107904e-05  0.401183566060451970.45333333333333337  -0.9866666666666667  -0.002294399453385436  0.401428784055021140.46  -0.9866666666666667  0.00019060845241109095  0.40171847818473770.4666666666666667  -0.9866666666666667  -0.002239743729408817  0.40204636989550880.4733333333333334  -0.9866666666666667  -0.0002507587576621095  0.40238110090369660.48000000000000004  -0.9866666666666667  -0.0023000079486844623  0.402684572636774260.4866666666666667  -0.9866666666666667  -0.0001550788048272428  0.4029361811077850.49333333333333335  -0.9866666666666667  -0.002194889180610143  0.40314955595622530.5  -0.9866666666666667  0.00011080275719088089  0.403367532747650470.5066666666666667  -0.9866666666666667  -0.002076170062556352  0.4036355698402160.5133333333333334  -0.9866666666666667  0.0002821892784862093  0.40397666267805480.52  -0.9866666666666667  -0.002145009495573686  0.404391390021081760.5266666666666667  -0.9866666666666667  -9.493284988726559e-05  0.40487815674821180.5333333333333333  -0.9866666666666667  -0.002063272708380363  0.40544819617312450.54  -0.9866666666666667  -5.2089889272200835e-05  0.40612093007067260.5466666666666667  -0.9866666666666667  -0.0020554174634092714  0.406907656051682660.5533333333333333  -0.9866666666666667  -4.7983037172167394e-05  0.407799997052028240.56  -0.9866666666666667  -0.0019538984779692344  0.40877254361847070.5666666666666667  -0.9866666666666667  6.075084972194766e-05  0.409796914093851940.5733333333333334  -0.9866666666666667  -0.0020474201418753083  0.410856045645979050.5800000000000001  -0.9866666666666667  7.853869403078803e-05  0.41194795139218820.5866666666666667  -0.9866666666666667  -0.001982891464610061  0.413076968165787930.5933333333333334  -0.9866666666666667  0.00025121461573726314  0.41424107253541580.6000000000000001  -0.9866666666666667  -0.0020422236705554993  0.415427162467557950.6066666666666667  -0.9866666666666667  -0.0002477847853813045  0.416618551957584960.6133333333333334  -0.9866666666666667  -0.0019458410210027532  0.417806763931213850.62  -0.9866666666666667  0.00019747665972625483  0.418995277556966140.6266666666666667  -0.9866666666666667  -0.0018436804762837877  0.42019166293468250.6333333333333334  -0.9866666666666667  2.2693991475971542e-05  0.42139729879945520.64  -0.9866666666666667  -0.0019078475674864622  0.422606210823605330.6466666666666667  -0.9866666666666667  6.693065927119249e-05  0.423813841152269330.6533333333333333  -0.9866666666666667  -0.0022174084291885195  0.42502564317639660.66  -0.9866666666666667  -0.00013755895196510576  0.42625666209996110.6666666666666667  -0.9866666666666667  -0.002309795116764073  0.427524023279893360.6733333333333333  -0.9866666666666667  7.944610154919001e-05  0.42884060489208750.68  -0.9866666666666667  -0.0022657912111428936  0.430213155184863640.6866666666666668  -0.9866666666666667  0.00026673668708889804  0.431639983984879070.6933333333333334  -0.9866666666666667  -0.002228635347932674  0.433104194429109750.7000000000000001  -0.9866666666666667  9.778009710188692e-05  0.434568677383415370.7066666666666667  -0.9866666666666667  -0.002153933466099758  0.435985566044434450.7133333333333334  -0.9866666666666667  0.00011554154910694393  0.437322470811322360.7200000000000001  -0.9866666666666667  -0.0021223880767718022  0.43858476346036160.7266666666666667  -0.9866666666666667  0.00017357110055443714  0.4398058492913790.7333333333333334  -0.9866666666666667  -0.0022868247506838274  0.441008912763541260.7400000000000001  -0.9866666666666667  0.00012886783250015726  0.44218523306155770.7466666666666667  -0.9866666666666667  -0.0018848813805201516  0.443320622808668960.7533333333333334  -0.9866666666666667  0.00017356287264898355  0.44443437011613520.76  -0.9866666666666667  -0.0017954013693118407  0.445573253015638160.7666666666666667  -0.9866666666666667  0.00018776925627216377  0.44677315268616150.7733333333333334  -0.9866666666666667  -0.001680891474968783  0.448048746856231860.78  -0.9866666666666667  -0.0001909606452762149  0.44940875680947950.7866666666666667  -0.9866666666666667  -0.00177169317643533  0.45083827573193360.7933333333333333  -0.9866666666666667  -0.0002954945195227701  0.45226310442777470.8  -0.9866666666666667  -0.0017474654872386647  0.45358757804210810.8066666666666668  -0.9866666666666667  8.878493904115222e-05  0.454797678444838760.8133333333333334  -0.9866666666666667  -0.0018130871541694395  0.455979694083994750.8200000000000001  -0.9866666666666667  0.00010673257819556709  0.457209490131299630.8266666666666668  -0.9866666666666667  -0.0018379743260645968  0.45850023823478980.8333333333333334  -0.9866666666666667  -0.0002681390777503379  0.45991003468849170.8400000000000001  -0.9866666666666667  -0.001685646362597871  0.46157060792487990.8466666666666667  -0.9866666666666667  5.4770133000615674e-05  0.46347990622260060.8533333333333334  -0.9866666666666667  -0.0017375686576173296  0.465452661275561060.8600000000000001  -0.9866666666666667  0.00040961187851163935  0.467446172599404350.8666666666666667  -0.9866666666666667  -0.0014758270562445532  0.46952687252571180.8733333333333334  -0.9866666666666667  0.0003496214445772956  0.47157616655103280.88  -0.9866666666666667  -0.0016437714659994144  0.473602271734413050.8866666666666667  -0.9866666666666667  -0.0003845405149349231  0.47571446224462110.8933333333333334  -0.9866666666666667  -0.001993857314319087  0.47778821341256730.9  -0.9866666666666667  -0.00013021099953880536  0.47973334872806640.9066666666666667  -0.9866666666666667  -0.002385022404271541  0.4815159943047750.9133333333333334  -0.9866666666666667  -0.00010052408880183222  0.48310854060786720.92  -0.9866666666666667  -0.0021165854858795374  0.484525748463724150.9266666666666667  -0.9866666666666667  1.4926715948960928e-05  0.485734048372710670.9333333333333333  -0.9866666666666667  -0.0023518977108537165  0.48671630736797720.9400000000000001  -0.9866666666666667  0.0003299327441071506  0.487446660043732440.9466666666666668  -0.9866666666666667  -0.00234394172003151  0.48786653179482490.9533333333333334  -0.9866666666666667  -0.00011647438162588349  0.48787556750015090.9600000000000001  -0.9866666666666667  -0.0021232571871542204  0.4873146121360290.9666666666666667  -0.9866666666666667  0.00014993753091985566  0.48599178871419090.9733333333333334  -0.9866666666666667  -0.0021218886511046773  0.48369699664524750.9800000000000001  -0.9866666666666667  0.00015130967717841916  0.480228451514208340.9866666666666667  -0.9866666666666667  -0.0017196469825918772  0.47535453271015050.9933333333333334  -0.9866666666666667  0.00019528161378264765  0.468684418963231761.0  -0.9866666666666667  -0.05132918980775782  0.45961594657453780.006666666666666667  -0.98  0.0  0.45961594657453780.013333333333333334  -0.98  7.619950368286674e-05  0.45872746375712680.02  -0.98  -1.7928170485187845e-05  0.456258360864446160.02666666666666667  -0.98  0.00039755513754114835  0.45361091862452470.03333333333333333  -0.98  -0.00023975566214868248  0.45094051626322540.04  -0.98  5.973626800545939e-05  0.448411484121204350.04666666666666667  -0.98  0.00028853753934553043  0.44606319915215640.05333333333333334  -0.98  0.0005122128313910005  0.443902980790132630.060000000000000005  -0.98  -0.000652393134097961  0.44188909040693320.06666666666666667  -0.98  0.0004970867355109982  0.43996888735136660.07333333333333333  -0.98  0.00012044167475020045  0.43808389185427740.08  -0.98  0.0008530319063925138  0.43619605375853060.08666666666666667  -0.98  -0.000348315923619335  0.434279682108630940.09333333333333334  -0.98  0.00047808846991007547  0.43231984501907420.1  -0.98  -4.7379993805573996e-05  0.430300453788678040.10666666666666667  -0.98  0.0010458513814329165  0.42821278719301630.11333333333333334  -0.98  -0.00012566935443760605  0.42605489238921450.12000000000000001  -0.98  0.0006867113816352187  0.42382861286350650.12666666666666668  -0.98  0.00011563310595081843  0.421540368673463060.13333333333333333  -0.98  0.0008293150205029343  0.419205131420707640.14  -0.98  -0.0003264151957711142  0.416839087856114230.14666666666666667  -0.98  0.0007181096230299292  0.414456318201421650.15333333333333335  -0.98  -3.613840938892508e-05  0.412068225373801670.16  -0.98  0.000969208474177559  0.409682628302848240.16666666666666669  -0.98  -0.00031260002250069056  0.40730580437866880.17333333333333334  -0.98  0.001030994115484985  0.404945921492534060.18000000000000002  -0.98  -6.614284397619639e-05  0.40261415577528490.18666666666666668  -0.98  0.0014617156117414344  0.400324888677730750.19333333333333336  -0.98  -0.0005777841647211252  0.398090509205918540.2  -0.98  0.001346609597986377  0.39591680708046150.2066666666666667  -0.98  0.00014224491628543704  0.393800729138796930.21333333333333335  -0.98  0.001549563941183395  0.391733710510420.22  -0.98  -0.00032271482740429773  0.38970852994687550.22666666666666668  -0.98  0.0017157435492378902  0.387724113836529550.23333333333333334  -0.98  -0.00017250845677456135  0.38578616987217460.24000000000000002  -0.98  0.0020885183667755615  0.38390352676558160.24666666666666667  -0.98  -0.0005506458993178799  0.3820842804229860.25333333333333335  -0.98  0.0021036300820404643  0.380334825316434640.26  -0.98  8.785818403088654e-05  0.37866025430188070.26666666666666666  -0.98  0.0021601057554142505  0.377064070631332740.2733333333333334  -0.98  -0.0003411488494554654  0.37554919461505580.28  -0.98  0.0019317156736613007  0.374116429734624830.2866666666666667  -0.98  2.7609414757641558e-05  0.372762940854191760.29333333333333333  -0.98  0.0019200373513039355  0.371490523550826070.30000000000000004  -0.98  -0.0006376492460599768  0.370298132898330250.3066666666666667  -0.98  0.0019749256577656494  0.36917768511035520.31333333333333335  -0.98  -0.00014750570019070617  0.36813401109880030.32  -0.98  0.0024400453815473255  0.367161915030592150.32666666666666666  -0.98  -0.00041762092145592903  0.366264955602094930.33333333333333337  -0.98  0.002531389744427096  0.36553354588367820.34  -0.98  -6.585971150778207e-05  0.36508148705825480.3466666666666667  -0.98  0.0027252124952399266  0.36495191491297620.35333333333333333  -0.98  -0.0005701362600807456  0.36516790103945620.36000000000000004  -0.98  0.002601834815480685  0.365758555151291130.3666666666666667  -0.98  -2.870493008808817e-05  0.366643430226227640.37333333333333335  -0.98  0.002685057793150913  0.367627534560040270.38  -0.98  -0.0005106164184466256  0.368527592829456740.3866666666666667  -0.98  0.002998822722814095  0.36923383563820050.39333333333333337  -0.98  -0.0002823777462051058  0.36977958677012230.4  -0.98  0.0027574198977098102  0.370319120581699130.4066666666666667  -0.98  -0.00043917961031953205  0.370982363818605330.4133333333333334  -0.98  0.002689474526092831  0.371800923624773740.42000000000000004  -0.98  2.7424761874931297e-05  0.372706360014755040.4266666666666667  -0.98  0.0027971105621229847  0.37354545636281810.43333333333333335  -0.98  -4.014920283966347e-05  0.3741647021609290.44  -0.98  0.0027253176238437376  0.37453808157159450.4466666666666667  -0.98  0.0001275065154547069  0.37478591580418730.45333333333333337  -0.98  0.003002585940364542  0.375059989470288350.46  -0.98  -0.0005805099135739177  0.37543886337799990.4666666666666667  -0.98  0.0029984157450606867  0.375914047995844050.4733333333333334  -0.98  -0.0001285747657356505  0.3764242758534620.48000000000000004  -0.98  0.002966943072865357  0.376893763567358150.4866666666666667  -0.98  -0.0004347141401761954  0.37727235811150780.49333333333333335  -0.98  0.0030795964701667558  0.377569839709342270.5  -0.98  -3.5735552257851445e-05  0.377856272593251330.5066666666666667  -0.98  0.003144403752957014  0.37821939833492270.5133333333333334  -0.98  -0.0004304053652707182  0.37871328887048450.52  -0.98  0.0030417680160533867  0.37934333166602580.5266666666666667  -0.98  -0.00014294729638623542  0.380094463166502860.5333333333333333  -0.98  0.0029363033693415603  0.3809669959477820.54  -0.98  -0.0003501527687416182  0.381983600147955740.5466666666666667  -0.98  0.0029899793509701343  0.383164794881031450.5533333333333333  -0.98  5.99054397900639e-05  0.384499926296735850.56  -0.98  0.003056661212963509  0.38594098878660660.5666666666666667  -0.98  -0.0005982989158097795  0.387424081750875670.5733333333333334  -0.98  0.0030108516885122396  0.38890069372268620.5800000000000001  -0.98  3.46749071827881e-05  0.39035518247532570.5866666666666667  -0.98  0.0030280037271640903  0.391797624483758660.5933333333333334  -0.98  -0.00014283463304354575  0.39324066722329520.6000000000000001  -0.98  0.0031101761287909723  0.39468040686508770.6066666666666667  -0.98  -0.00021273809988119513  0.396096407950082440.6133333333333334  -0.98  0.0032125995549084807  0.397468753707799160.62  -0.98  -0.0004279547180963548  0.39879512188503020.6266666666666667  -0.98  0.0033790715099304824  0.40009216921693540.6333333333333334  -0.98  2.209440744866755e-05  0.401381835952988650.64  -0.98  0.0033625121078131644  0.40267776341818040.6466666666666667  -0.98  -0.00014213090767816686  0.403985398342813940.6533333333333333  -0.98  0.003241608652345831  0.40531434521341930.66  -0.98  -5.838486351737752e-05  0.406689294810359760.6666666666666667  -0.98  0.0030884265945399893  0.408148405013283140.6733333333333333  -0.98  -0.00047867524974801005  0.409730133521263250.68  -0.98  0.003151279023739052  0.411457348963493340.6866666666666668  -0.98  0.00020283756214595195  0.41332482479574290.6933333333333334  -0.98  0.003110400834113545  0.4152908604038630.7000000000000001  -0.98  -0.00011347659745373885  0.417276223249610560.7066666666666667  -0.98  0.003240991408540638  0.419181425261137550.7133333333333334  -0.98  4.722889127526077e-05  0.4209293039030180.7200000000000001  -0.98  0.0033396403165352907  0.42251155499913310.7266666666666667  -0.98  -0.00036089443308162113  0.42399202623298790.7333333333333334  -0.98  0.0034336347313409328  0.42544724578285550.7400000000000001  -0.98  0.0001646745452740154  0.426900348312241330.7466666666666667  -0.98  0.0035226147537377687  0.42832982452107130.7533333333333334  -0.98  7.90598501881192e-05  0.429744342675273170.76  -0.98  0.003650266144130027  0.43121903066685940.7666666666666667  -0.98  9.252335749220104e-05  0.43284347085006710.7733333333333334  -0.98  0.0036359547212554077  0.434661908123560650.78  -0.98  -0.000541950887922539  0.436673804036757260.7866666666666667  -0.98  0.0036662090308710454  0.438835941044826870.7933333333333333  -0.98  -0.00023323361644131147  0.44102120227468980.8  -0.98  0.0036130177194858733  0.44304699935068660.8066666666666668  -0.98  7.483637841434046e-05  0.444845033508992070.8133333333333334  -0.98  0.0036008038090983158  0.446563518602683340.8200000000000001  -0.98  0.00011990865161808239  0.448401685127167940.8266666666666668  -0.98  0.0037077780772177215  0.450424214854173330.8333333333333334  -0.98  -0.0005232244193628939  0.45269514289227350.8400000000000001  -0.98  0.003965147816176045  0.4554291532345610.8466666666666667  -0.98  2.1166354656764016e-05  0.458664360094882650.8533333333333334  -0.98  0.003919016086348796  0.462031380861374960.8600000000000001  -0.98  1.0818169704503343e-05  0.465359118099783140.8666666666666667  -0.98  0.0039222019864000954  0.46880418287895230.8733333333333334  -0.98  0.00020124349960855457  0.47220480622248580.88  -0.98  0.0037374378