variables ="x","y","s","w"
zone f=point i=90,j=500
0.011111111111111112  -0.996  0.0  0.4595677807985230.022222222222222223  -0.996  0.0  0.4595677807985230.03333333333333333  -0.996  0.0  0.4595677807985230.044444444444444446  -0.996  0.0  0.4595677807985230.05555555555555556  -0.996  0.0  0.4595677807985230.06666666666666667  -0.996  0.0  0.4595677807985230.07777777777777778  -0.996  0.0  0.4595677807985230.08888888888888889  -0.996  0.0  0.4595677807985230.1  -0.996  0.0  0.4595677807985230.11111111111111112  -0.996  0.0  0.4595677807985230.12222222222222223  -0.996  0.0  0.4595677807985230.13333333333333333  -0.996  0.0  0.4595677807985230.14444444444444446  -0.996  0.0  0.4595677807985230.15555555555555556  -0.996  0.0  0.4595677807985230.16666666666666669  -0.996  0.0  0.4595677807985230.17777777777777778  -0.996  0.0  0.4595677807985230.18888888888888888  -0.996  0.0  0.4595677807985230.2  -0.996  0.0  0.4595677807985230.2111111111111111  -0.996  0.0  0.4595677807985230.22222222222222224  -0.996  0.0  0.4595677807985230.23333333333333334  -0.996  0.0  0.4595677807985230.24444444444444446  -0.996  0.0  0.4595677807985230.2555555555555556  -0.996  0.0  0.4595677807985230.26666666666666666  -0.996  0.0  0.4595677807985230.2777777777777778  -0.996  0.0  0.4595677807985230.2888888888888889  -0.996  0.0  0.4595677807985230.3  -0.996  0.0  0.4595677807985230.3111111111111111  -0.996  0.0  0.4595677807985230.32222222222222224  -0.996  0.0  0.4595677807985230.33333333333333337  -0.996  0.0  0.4595677807985230.34444444444444444  -0.996  0.0  0.4595677807985230.35555555555555557  -0.996  0.0  0.4595677807985230.3666666666666667  -0.996  0.0  0.4595677807985230.37777777777777777  -0.996  0.0  0.4595677807985230.3888888888888889  -0.996  0.0  0.4595677807985230.4  -0.996  0.0  0.4595677807985230.41111111111111115  -0.996  0.0  0.4595677807985230.4222222222222222  -0.996  0.0  0.4595677807985230.43333333333333335  -0.996  0.0  0.4595677807985230.4444444444444445  -0.996  0.0  0.4595677807985230.45555555555555555  -0.996  0.0  0.4595677807985230.4666666666666667  -0.996  0.0  0.4595677807985230.4777777777777778  -0.996  0.0  0.4595677807985230.48888888888888893  -0.996  0.0  0.4595677807985230.5  -0.996  0.0  0.4595677807985230.5111111111111112  -0.996  0.0  0.4595677807985230.5222222222222223  -0.996  0.0  0.4595677807985230.5333333333333333  -0.996  0.0  0.4595677807985230.5444444444444445  -0.996  0.0  0.4595677807985230.5555555555555556  -0.996  0.0  0.4595677807985230.5666666666666667  -0.996  0.0  0.4595677807985230.5777777777777778  -0.996  0.0  0.4595677807985230.5888888888888889  -0.996  0.0  0.4595677807985230.6  -0.996  0.0  0.4595677807985230.6111111111111112  -0.996  0.0  0.4595677807985230.6222222222222222  -0.996  0.0  0.4595677807985230.6333333333333333  -0.996  0.0  0.4595677807985230.6444444444444445  -0.996  0.0  0.4595677807985230.6555555555555556  -0.996  0.0  0.4595677807985230.6666666666666667  -0.996  0.0  0.4595677807985230.6777777777777778  -0.996  0.0  0.4595677807985230.6888888888888889  -0.996  0.0  0.4595677807985230.7000000000000001  -0.996  0.0  0.4595677807985230.7111111111111111  -0.996  0.0  0.4595677807985230.7222222222222222  -0.996  0.0  0.4595677807985230.7333333333333334  -0.996  0.0  0.4595677807985230.7444444444444445  -0.996  0.0  0.4595677807985230.7555555555555555  -0.996  0.0  0.4595677807985230.7666666666666667  -0.996  0.0  0.4595677807985230.7777777777777778  -0.996  0.0  0.4595677807985230.788888888888889  -0.996  0.0  0.4595677807985230.8  -0.996  0.0  0.4595677807985230.8111111111111111  -0.996  0.0  0.4595677807985230.8222222222222223  -0.996  0.0  0.4595677807985230.8333333333333334  -0.996  0.0  0.4595677807985230.8444444444444444  -0.996  0.0  0.4595677807985230.8555555555555556  -0.996  0.0  0.4595677807985230.8666666666666667  -0.996  0.0  0.4595677807985230.8777777777777778  -0.996  0.0  0.4595677807985230.888888888888889  -0.996  0.0  0.4595677807985230.9  -0.996  0.0  0.4595677807985230.9111111111111111  -0.996  0.0  0.4595677807985230.9222222222222223  -0.996  0.0  0.4595677807985230.9333333333333333  -0.996  0.0  0.4595677807985230.9444444444444445  -0.996  0.0  0.4595677807985230.9555555555555556  -0.996  0.0  0.4595677807985230.9666666666666667  -0.996  0.0  0.4595677807985230.9777777777777779  -0.996  0.0  0.4595677807985230.9888888888888889  -0.996  0.0  0.4595677807985231.0  -0.996  0.0  0.4595677807985230.011111111111111112  -0.992  0.0  0.4595677807985230.022222222222222223  -0.992  -0.0002214249377234328  0.4595677807985230.03333333333333333  -0.992  -0.00016760284565144653  0.4595677807985230.044444444444444446  -0.992  0.0007573932096612278  0.4595677807985230.05555555555555556  -0.992  -0.0008038786650753143  0.4595677807985230.06666666666666667  -0.992  0.0008744819514262014  0.4595677807985230.07777777777777778  -0.992  9.808600789543148e-05  0.4595677807985230.08888888888888889  -0.992  0.001453501939085712  0.4595677807985230.1  -0.992  -0.0006337422707444191  0.4595677807985230.11111111111111112  -0.992  0.0016431279369869553  0.4595677807985230.12222222222222223  -0.992  -5.036092233652198e-05  0.4595677807985230.13333333333333333  -0.992  0.002175548548565471  0.4595677807985230.14444444444444446  -0.992  -0.000785202942873795  0.4595677807985230.15555555555555556  -0.992  0.0021520384989081316  0.4595677807985230.16666666666666669  -0.992  -0.00017503926029408527  0.4595677807985230.17777777777777778  -0.992  0.002581981182620712  0.4595677807985230.18888888888888888  -0.992  -0.0007440381397917367  0.4595677807985230.2  -0.992  0.0023652008298545887  0.4595677807985230.2111111111111111  -0.992  8.94062182770469e-06  0.4595677807985230.22222222222222224  -0.992  0.0027888079446312906  0.4595677807985230.23333333333333334  -0.992  -0.0007917184014682935  0.4595677807985230.24444444444444446  -0.992  0.0027813854853243163  0.4595677807985230.2555555555555556  -0.992  -0.00020137964540322054  0.4595677807985230.26666666666666666  -0.992  0.003106969852359292  0.4595677807985230.2777777777777778  -0.992  -0.0005863745457024593  0.4595677807985230.2888888888888889  -0.992  0.0027719269204871137  0.4595677807985230.3  -0.992  -0.000155334602050438  0.4595677807985230.3111111111111111  -0.992  0.002749092868058104  0.4595677807985230.32222222222222224  -0.992  -0.0008428586895652759  0.4595677807985230.33333333333333337  -0.992  0.002772840731949341  0.4595677807985230.34444444444444444  -0.992  4.1095828690627104e-05  0.4595677807985230.35555555555555557  -0.992  0.002984922974896694  0.4595677807985230.3666666666666667  -0.992  -0.0005982241610570356  0.4595677807985230.37777777777777777  -0.992  0.0030563140102478448  0.4595677807985230.3888888888888889  -0.992  1.960969965904589e-05  0.4595677807985230.4  -0.992  0.0031720831070045433  0.4595677807985230.41111111111111115  -0.992  -0.0006930643433406912  0.4595677807985230.4222222222222222  -0.992  0.0032335072289847652  0.4595677807985230.43333333333333335  -0.992  -1.6032673032803668e-05  0.4595677807985230.4444444444444445  -0.992  0.003296122908739054  0.4595677807985230.45555555555555555  -0.992  -0.0005450826655033069  0.4595677807985230.4666666666666667  -0.992  0.0033425152586153387  0.4595677807985230.4777777777777778  -0.992  2.7571092570843634e-05  0.4595677807985230.48888888888888893  -0.992  0.003427462373490934  0.4595677807985230.5  -0.992  -0.0006548610346386231  0.4595677807985230.5111111111111112  -0.992  0.0033691785852020995  0.4595677807985230.5222222222222223  -0.992  1.8870931807766147e-05  0.4595677807985230.5333333333333333  -0.992  0.003340842583167016  0.4595677807985230.5444444444444445  -0.992  -0.0004973672147719317  0.4595677807985230.5555555555555556  -0.992  0.0033978343498843088  0.4595677807985230.5666666666666667  -0.992  -3.270856948979114e-05  0.4595677807985230.5777777777777778  -0.992  0.0033544324919581514  0.4595677807985230.5888888888888889  -0.992  -0.0005013653916236995  0.4595677807985230.6  -0.992  0.00336324981696845  0.4595677807985230.6111111111111112  -0.992  5.468906395382685e-05  0.4595677807985230.6222222222222222  -0.992  0.0033195477516401767  0.4595677807985230.6333333333333333  -0.992  -0.0004057726566391032  0.4595677807985230.6444444444444445  -0.992  0.0034780499752569208  0.4595677807985230.6555555555555556  -0.992  0.00010753518525084387  0.4595677807985230.6666666666666667  -0.992  0.003403075033643648  0.4595677807985230.6777777777777778  -0.992  -0.0004321594745874711  0.4595677807985230.6888888888888889  -0.992  0.0035100822306864577  0.459097496035599850.7000000000000001  -0.992  3.55858971408003e-05  0.45780615614795620.7111111111111111  -0.992  0.003476190037724995  0.45639294695280920.7222222222222222  -0.992  -0.0006888798390193127  0.45492875922108320.7333333333333334  -0.992  0.0031478460334992144  0.4535024462449440.7444444444444445  -0.992  -6.578318956417548e-05  0.45214150977588830.7555555555555555  -0.992  0.003388863620505825  0.450857435160924640.7666666666666667  -0.992  -0.0003388667748248295  0.449634874550503770.7777777777777778  -0.992  0.003507860991098488  0.44845155698738510.788888888888889  -0.992  -4.5202470788544635e-05  0.4472807124236920.8  -0.992  0.0035052469516924367  0.446104691578364630.8111111111111111  -0.992  0.00030382045451429415  0.444910184140139550.8222222222222223  -0.992  0.0031638887431049223  0.443687824373309340.8333333333333334  -0.992  7.772400485029691e-05  0.44242712063186890.8444444444444444  -0.992  0.0032161933998379627  0.44112188645531040.8555555555555556  -0.992  -0.00010856255401657296  0.439769446162752650.8666666666666667  -0.992  0.003308836007542811  0.43836895188972830.8777777777777778  -0.992  1.5527929202372746e-05  0.436922025194348860.888888888888889  -0.992  0.003333062996499132  0.43543487768554590.9  -0.992  0.0005611535631362596  0.433914521590018250.9111111111111111  -0.992  0.003437943389231853  0.432367573227696530.9222222222222223  -0.992  2.9172524252943524e-05  0.430799661264603730.9333333333333333  -0.992  0.0032876158940960526  0.429214960589027030.9444444444444445  -0.992  9.829837766262447e-06  0.427617807934566660.9555555555555556  -0.992  0.0033477893592459896  0.426014507240654540.9666666666666667  -0.992  0.00018282393129614158  0.424413622099537150.9777777777777779  -0.992  0.0032429233951267  0.42282519210758380.9888888888888889  -0.992  0.00029210784255359406  0.421257405138736161.0  -0.992  -0.025120621904134235  0.419714677261166850.011111111111111112  -0.988  0.0  0.41819733258086450.022222222222222223  -0.988  -0.00010965684521253295  0.41670405457444430.03333333333333333  -0.988  -6.607451310774467e-05  0.415234823341103560.044444444444444446  -0.988  -0.000277977130498997  0.413792116037848050.05555555555555556  -0.988  0.00015066318711719751  0.412380376306995030.06666666666666667  -0.988  -0.000232569971637706  0.41100419761893120.07777777777777778  -0.988  -5.64162682218425e-05  0.409667197250756340.08888888888888889  -0.988  -0.00037170305769688674  0.408372078446393450.1  -0.988  0.0002073136595155446  0.407121001894705240.11111111111111112  -0.988  -0.00036112659230818446  0.40591565460645750.12222222222222223  -0.988  -1.1071908328572862e-05  0.40475795554569130.13333333333333333  -0.988  -0.0005873717920365517  0.40364917872318030.14444444444444446  -0.988  0.00018934005540652767  0.40258957690712420.15555555555555556  -0.988  -0.0005940382565281149  0.401582011334752350.16666666666666669  -0.988  2.2494827179868297e-05  0.400627002939542450.17777777777777778  -0.988  -0.0007167667525288759  0.39972238884368630.18888888888888888  -0.988  0.00021674185157920798  0.39887273028079280.2  -0.988  -0.0006266120964436753  0.398076153131854070.2111111111111111  -0.988  -4.111239482343155e-05  0.397337939280558440.22222222222222224  -0.988  -0.0006959063094158519  0.396708497024867160.23333333333333334  -0.988  0.00019658370653624443  0.396246399826973740.24444444444444446  -0.988  -0.0006846138810299725  0.395974872280976940.2555555555555556  -0.988  -2.85273446897959e-06  0.39591126605257510.26666666666666666  -0.988  -0.0007884174361655012  0.3960746401250590.2777777777777778  -0.988  0.00012860941055795137  0.39642428952286770.2888888888888889  -0.988  -0.000696745633099064  0.39686368806945290.3  -0.988  -1.8511686111792184e-05  0.397302831638359830.3111111111111111  -0.988  -0.0007407888403395436  0.39768508006652170.32222222222222224  -0.988  0.00016994773308205414  0.39802401781364040.33333333333333337  -0.988  -0.0007383427862948831  0.39838804815798430.34444444444444444  -0.988  5.054548488174649e-06  0.398828048456318860.35555555555555557  -0.988  -0.0007945690909055695  0.39934750636276620.3666666666666667  -0.988  0.0001940561138044554  0.399902670253793560.37777777777777777  -0.988  -0.000765430559635162  0.40041211957565160.3888888888888889  -0.988  -1.7125085289296302e-05  0.40080592548368510.4  -0.988  -0.0007607494618040417  0.401085736803618860.41111111111111115  -0.988  0.00019638932636323778  0.40131558192848790.4222222222222222  -0.988  -0.0007207971504637129  0.40156016682989520.43333333333333335  -0.988  -5.422901227205779e-06  0.40184877814360040.4444444444444445  -0.988  -0.0007552832489084889  0.402175200838685240.45555555555555555  -0.988  0.00017110386173778283  0.40250851142791950.4666666666666667  -0.988  -0.0007257157529816566  0.40281116743460140.4777777777777778  -0.988  4.942472325410787e-06  0.40306288780882240.48888888888888893  -0.988  -0.0007561513113244197  0.403277142690116050.5  -0.988  0.00017229195135631695  0.40349618765245380.5111111111111112  -0.988  -0.0007903754391540954  0.40376485454828460.5222222222222223  -0.988  5.6965015329244124e-06  0.40410583057311070.5333333333333333  -0.988  -0.0008047367504214221  0.404519712708328760.5444444444444445  -0.988  0.00014351102130038984  0.405004963743782360.5555555555555556  -0.988  -0.0007958588213587204  0.405572699938744450.5666666666666667  -0.988  2.858826916362205e-05  0.40624211538281270.5777777777777778  -0.988  -0.0007897018389445148  0.407024394800603760.5888888888888889  -0.988  0.00017931682832700147  0.40791131674508310.6  -0.988  -0.0008312204848227126  0.408877850363970340.6111111111111112  -0.988  2.5416659308417657e-05  0.409896013916134060.6222222222222222  -0.988  -0.0008507883676345536  0.41094896610265640.6333333333333333  -0.988  0.00013010551670436342  0.412034716910602670.6444444444444445  -0.988  -0.0008510187650888111  0.413157508754960430.6555555555555556  -0.988  5.236530251102175e-06  0.41431532013897810.6666666666666667  -0.988  -0.0008605403194960304  0.41549521534666170.6777777777777778  -0.988  0.00011242516495149935  0.41668072591887940.6888888888888889  -0.988  -0.0008955800851058904  0.417863467469280440.7000000000000001  -0.988  -5.800816934464454e-07  0.419046831426564350.7111111111111111  -0.988  -0.0009089745299861751  0.420238237481245170.7222222222222222  -0.988  7.164243133656986e-05  0.42143900507039670.7333333333333334  -0.988  -0.0008542205049259563  0.42264320867998930.7444444444444445  -0.988  -5.9022127139583494e-05  0.4238463150283220.7555555555555555  -0.988  -0.0008949121998050133  0.42505364779772260.7666666666666667  -0.988  7.791160912663456e-05  0.426279973439117940.7777777777777778  -0.988  -0.0009313682983661375  0.42754210341590070.788888888888889  -0.988  -1.8889670861573712e-05  0.42885266748893720.8  -0.988  -0.000940468613563056  0.430218268201066840.8111111111111111  -0.988  6.540324681669363e-06  0.43163721526358240.8222222222222223  -0.988  -0.0009046900954461014  0.43309286346901160.8333333333333334  -0.988  1.3462945120217322e-05  0.43454868155910720.8444444444444444  -0.988  -0.0009418270467973229  0.43595755724580060.8555555555555556  -0.988  9.675616615833304e-05  0.437287626207350.8666666666666667  -0.988  -0.0009734763526909329  0.43854420896044280.8777777777777778  -0.988  -2.9316291627012676e-06  0.439760218820404060.888888888888889  -0.988  -0.000965234978499603  0.44095847642844450.9  -0.988  -8.443361344312193e-05  0.44213034844567430.9111111111111111  -0.988  -0.0009464960842988414  0.443261790324851750.9222222222222223  -0.988  2.724018686163166e-05  0.44437171491722870.9333333333333333  -0.988  -0.0009568647437288899  0.44550611284948490.9444444444444445  -0.988  5.8165853508370957e-05  0.446700247074984960.9555555555555556  -0.988  -0.0009740827866699098  0.44796848975318670.9666666666666667  -0.988  7.449460004380845e-05  0.44931933804040280.9777777777777779  -0.988  -0.0010172086490956008  0.4507380505688240.9888888888888889  -0.988  7.96943755711108e-05  0.45215156161639711.0  -0.988  -0.005490429936853834  0.4534657108254750.011111111111111112  -0.984  0.0  0.45466674403052810.022222222222222223  -0.984  -3.992992839207881e-05  0.455839659076856750.03333333333333333  -0.984  -0.00013030540845281627  0.457059153287896870.044444444444444446  -0.984  0.0025239919498991122  0.45833819908258620.05555555555555556  -0.984  -0.0021465826949876214  0.45973409448155920.06666666666666667  -0.984  0.002613644457099929  0.461376733853884060.07777777777777778  -0.984  0.00039697498388248056  0.46326426070719740.08888888888888889  -0.984  0.004311145903122477  0.46521431054503520.1  -0.984  -0.0020187277578942154  0.4671849377842390.11111111111111112  -0.984  0.0046668093954440005  0.46924156164524060.12222222222222223  -0.984  -7.437286055173585e-05  0.47126707210694370.13333333333333333  -0.984  0.006549894937276028  0.47326949177216180.14444444444444446  -0.984  -0.002264916920084144  0.475356633231206750.15555555555555556  -0.984  0.006510307982922271  0.477405721365426860.16666666666666669  -0.984  -0.0004741808355234882  0.47932776174485910.17777777777777778  -0.984  0.007830732459362678  0.481089342575209360.18888888888888888  -0.984  -0.002281257960641133  0.482663309457570740.2  -0.984  0.007063854095322021  0.48406426153659460.2111111111111111  -0.984  0.00015714097194126147  0.48525910390882730.22222222222222224  -0.984  0.008124080727650296  0.486231046362257060.23333333333333334  -0.984  -0.0023340067554057024  0.48695467495777190.24444444444444446  -0.984  0.00807317569865165  0.487372343320219560.2555555555555556  -0.984  -0.0004243239891592282  0.48738547235500320.26666666666666666  -0.984  0.009078927541644308  0.48683738005120860.2777777777777778  -0.984  -0.0016451524346212717  0.48553881692540730.2888888888888889  -0.984  0.008066102792714094  0.483282632970081560.3  -0.984  -0.00021823317153793308  0.479870132116498870.3111111111111111  -0.984  0.008181577100146166  0.475073254792306440.32222222222222224  -0.984  -0.0023324697934602513  0.46850569751254580.33333333333333337  -0.984  0.008204989382814084  0.4595677807985230.34444444444444444  -0.984  5.999049305539553e-05  0.4595677807985230.35555555555555557  -0.984  0.008829386671413442  0.45868245798122790.3666666666666667  -0.984  -0.0019061366574050194  0.45621293227359290.37777777777777777  -0.984  0.008883327862202901  0.45356409441892110.3888888888888889  -0.984  0.00011443246176602893  0.450892697036400340.4  -0.984  0.009089570738667313  0.448362241895928660.41111111111111115  -0.984  -0.0021055823278025958  0.446011937328632870.4222222222222222  -0.984  0.009067500435734491  0.443849133766126670.43333333333333335  -0.984  -9.842035015820802e-06  0.441832507599998760.4444444444444445  -0.984  0.009327870380594919  0.43990984858167550.45555555555555555  -0.984  -0.0017172602662185107  0.43802302953380340.4666666666666667  -0.984  0.009327257904802327  0.43613428479307360.4777777777777778  -0.984  4.637220689107405e-05  0.43421816778807740.48888888888888893  -0.984  0.009634947666177222  0.432259848948796430.5  -0.984  -0.0019469116975447255  0.430243307312326740.5111111111111112  -0.984  0.009637828518200893  0.4281598252226950.5222222222222223  -0.984  2.574076615288613e-06  0.42600740716398610.5333333333333333  -0.984  0.009639926945111515  0.42378788164298320.5444444444444445  -0.984  -0.00151049730261332  0.42150765496157550.5555555555555556  -0.984  0.009719568866631403  0.41918160149813780.5666666666666667  -0.984  -0.00018928292811494908  0.416825771514690860.5777777777777778  -0.984  0.009607679000410256  0.41445409673706790.5888888888888889  -0.984  -0.0016632096692166891  0.41207786406058230.6  -0.984  0.00975975546059208  0.40970482805651950.6111111111111112  -0.984  6.215564590170264e-06  0.40734120158894620.6222222222222222  -0.984  0.009740559610832778  0.40499503448525470.6333333333333333  -0.984  -0.0012804629615603786  0.40267730783378440.6444444444444445  -0.984  0.010074916122839206  0.40040216850190380.6555555555555556  -0.984  0.00021133789275092605  0.398181822567579340.6666666666666667  -0.984  0.009966795930953714  0.396022003049862850.6777777777777778  -0.984  -0.0012636118887204598  0.393919734944004560.6888888888888889  -0.984  0.010302849004221296  0.39186658358522130.7000000000000001  -0.984  6.0233235261270606e-05  0.38985538948026040.7111111111111111  -0.984  0.010289684046902805  0.387884996590594940.7222222222222222  -0.984  -0.0016147766350677773  0.385960912170735470.7333333333333334  -0.984  0.009424031942208035  0.384091748307284260.7444444444444445  -0.984  6.55712819726226e-05  0.38228546209966340.7555555555555555  -0.984  0.010047986278872243  0.38054840409802180.7666666666666667  -0.984  -0.0009745321379466335  0.37888569215590390.7777777777777778  -0.984  0.010431762995280291  0.37730091100617290.788888888888889  -0.984  -4.6642126010687594e-05  0.37579707975956090.8  -0.984  0.010488432074707212  0.374375107969082130.8111111111111111  -0.984  0.0005943821788885432  0.373032264474664030.8222222222222223  -0.984  0.009676320750883843  0.3717702996381870.8333333333333334  -0.984  9.224572022810079e-05  0.370588115433813540.8444444444444444  -0.984  0.00991192158461361  0.36947766711115460.8555555555555556  -0.984  -0.000571764368880606  0.36844362007961640.8666666666666667  -0.984  0.010203376384962295  0.367480813135120270.8777777777777778  -0.984  3.926658741182629e-05  0.366592666784515460.888888888888889  -0.984  0.010224617984793658  0.365867910454069970.9  -0.984  0.0014236535652635313  0.365418283072264370.9111111111111111  -0.984  0.010391294190634566  0.365286208129328770.9222222222222223  -0.984  -3.4213222795051965e-05  0.36549449542616810.9333333333333333  -0.984  0.010101706487155932  0.36607187787044890.9444444444444445  -0.984  -0.0001695337015330657  0.366939415794413140.9555555555555556  -0.984  0.010264192925530541  0.3679055848760930.9666666666666667  -0.984  0.00010979704999065077  0.36879027980389970.9777777777777779  -0.984  0.010174982787606287  0.369485547753245550.9888888888888889  -0.984  0.00029724496234030017  0.370024013867869871.0  -0.984  -0.004612904533147352  0.370557191714840860.011111111111111112  -0.98  0.0  0.371212750233968270.022222222222222223  -0.98  -1.4683416532172863e-05  0.372021738673860960.03333333333333333  -0.98  9.688920711392655e-05  0.37291674113341420.044444444444444446  -0.98  -0.0017734554312344123  0.373746841374875350.05555555555555556  -0.98  0.0015728010373656618  0.3743608211061260.06666666666666667  -0.98  -0.0018449416417698015  0.3747330045762120.07777777777777778  -0.98  -0.0003556927455452705  0.374981848050269240.08888888888888889  -0.98  -0.003044827718516912  0.37525685662706250.1  -0.98  0.0013867650589775387  0.37563544488801610.11111111111111112  -0.98  -0.0033024628110899954  0.376109239969009470.12222222222222223  -0.98  7.836735838569467e-05  0.376617831416730.13333333333333333  -0.98  -0.004557935676103586  0.377086517776528130.14444444444444446  -0.98  0.0016428034875287758  0.37746590089061530.15555555555555556  -0.98  -0.004505762896613459  0.37776568423119580.16666666666666669  -0.98  0.00031217617685580474  0.37805498923383080.17777777777777778  -0.98  -0.005415923700036415  0.3784203362306980.18888888888888888  -0.98  0.0015199603820028787  0.37891503132096750.2  -0.98  -0.004888119676280703  0.37954438495652920.2111111111111111  -0.98  -0.00017497623585766622  0.380293564140390230.22222222222222224  -0.98  -0.005673359402234836  0.381162918263944660.23333333333333334  -0.98  0.0016674415687698333  0.38217485544267610.24444444444444446  -0.98  -0.005611063304586537  0.38334966564819870.2555555555555556  -0.98  0.00025120442393484436  0.3846768917323690.26666666666666666  -0.98  -0.00636220964672342  0.386109226104081660.2777777777777778  -0.98  0.0010503396512949097  0.38758366054546250.2888888888888889  -0.98  -0.005675867942760728  0.3890523314166480.3  -0.98  0.00022182405335166575  0.39049976088848420.3111111111111111  -0.98  -0.0057407349374140335  0.391935820631257760.32222222222222224  -0.98  0.001675785483995293  0.393372926857750.33333333333333337  -0.98  -0.005752655436042837  0.39480719752715970.34444444444444444  -0.98  -6.326037507817719e-05  0.39621846674765380.35555555555555557  -0.98  -0.006208739938938493  0.39758707802515420.3666666666666667  -0.98  0.001287757830594982  0.398910703944809540.37777777777777777  -0.98  -0.00626162546304818  0.40020570909634370.3888888888888889  -0.98  -0.00011096285621538483  0.40149365828708340.4  -0.98  -0.006338838556392542  0.40278793425413160.41111111111111115  -0.98  0.0015032215918275302  0.404093835800764470.4222222222222222  -0.98  -0.006273531218607156  0.40542074219505120.43333333333333335  -0.98  9.205187644919599e-06  0.40679287984453930.4444444444444445  -0.98  -0.006436946234935546  0.408247738529716850.45555555555555555  -0.98  0.0011688924081944177  0.409823123832859240.4666666666666667  -0.98  -0.006404756129831487  0.41154153368238850.4777777777777778  -0.98  -3.431763478535385e-05  0.41339785889137360.48888888888888893  -0.98  -0.006660338752202679  0.41535113217515040.5  -0.98  0.0014038158468143492  0.417323469608759050.5111111111111112  -0.98  -0.006702128190764789  0.41921705549666250.5222222222222223  -0.98  -9.602670050750577e-06  0.420956047211001940.5333333333333333  -0.98  -0.006710019746436441  0.422532374896438130.5444444444444445  -0.98  0.0009858316698003829  0.42400895858142390.5555555555555556  -0.98  -0.006770414139349793  0.42546112024515240.5666666666666667  -0.98  0.00017892690409267292  0.42691151212537080.5777777777777778  -0.98  -0.006654483685069963  0.42833875970154880.5888888888888889  -0.98  0.0012226416531564083  0.42975119675832420.6  -0.98  -0.006745153778228881  0.431222634326323350.6111111111111112  -0.98  -8.141252870787625e-06  0.43284114329171680.6222222222222222  -0.98  -0.006710181912035872  0.43465014069404230.6333333333333333  -0.98  0.0008797310062186766  0.436648925627439950.6444444444444445  -0.98  -0.006983814366523281  0.43879481982474810.6555555555555556  -0.98  -0.00020083739017034483  0.44096265038063670.6666666666666667  -0.98  -0.006861274819408646  0.44297271349217350.6777777777777778  -0.98  0.0008661029282293596  0.444757865851418740.6888888888888889  -0.98  -0.0070732846913720395  0.44646410792967520.7000000000000001  -0.98  -6.307303043706942e-05  0.44828756816480370.7111111111111111  -0.98  -0.007067335449159871  0.450291880581493830.7222222222222222  -0.98  0.0011389698136629425  0.452540225030790060.7333333333333334  -0.98  -0.00646222462221557  0.45524432529661110.7444444444444445  -0.98  -3.0701853884572116e-05  0.4584420232966320.7555555555555555  -0.98  -0.006968134891503063  0.461769700766102240.7666666666666667  -0.98  0.000735726162083574  0.46505902733631740.7777777777777778  -0.98  -0.007244075382479462  0.46846422217667640.788888888888889  -0.98  6.677442207523862e-06  0.47182533315658010.8  -0.98  -0.007281900017239895  0.47513675886577870.8111111111111111  -0.98  -0.0004688502860587436  0.47863609565799790.8222222222222223  -0.98  -0.006724521007183825  0.48207794706578880.8333333333333334  -0.98  -1.3596638949177931e-05  0.48520700456255270.8444444444444444  -0.98  -0.006840202762272583  0.487984387823151340.8555555555555556  -0.98  0.0004456755012997458  0.490446971311664040.8666666666666667  -0.98  -0.007017560673608046  0.492715069411298940.8777777777777778  -0.98  -4.934740287913522e-05  0.494788118594977570.888888888888889  -0.98  -0.007038564703749954  0.49665410385350950.9  -0.98  -0.0010070516268234195  0.498286558800457470.9111111111111111  -0.98  -0.007183038809463315  0.499593704497442450.9222222222222223  -0.98  6.716274317109044e-06  0.50042327898199250.9333333333333333  -0.98  -0.00697598162081854  0.50051810982746820.9444444444444445  -0.98  0.00011597514935225468  0.499558881636709530.9555555555555556  -0.98  -0.007107880732536651  0.49718213248820050.9666666666666667  -0.98  -7.30528051357657e-05  0.49297455869011940.9777777777777779  -0.98  -0.007044396685882748  0.48630801075932840.9888888888888889  -0.98  -0.00018217088248922398  0.47590424270556241.0  -0.98  -0.00059776703202819  0.4595677807985230.011111111111111112  -0.976  0.0  0.4595677807985230.022222222222222223  -0.976  -4.4771270910118214e-05  0.45836549061592090.03333333333333333  -0.976  -8.745462510975388e-05  0.45490999033556780.044444444444444446  -0.976  0.002131012243949092  0.45130635805895340.05555555555555556  -0.976  -0.0015033802918780195  0.447807909817876770.06666666666666667  -0.976  0.002371502597288382  0.444616373206524030.07777777777777778  -0.976  0.00018713867789250276  0.44175131020834270.08888888888888889  -0.976  0.0037839149445925467  0.439192574517649870.1  -0.976  -0.0016547241441227556  0.436862068284541770.11111111111111112  -0.976  0.003998574830470141  0.43467255963718590.12222222222222223  -0.976  -1.9181843703913176e-05  0.432533027946362840.13333333333333333  -0.976  0.005764100176010212  0.43038488994763920.14444444444444446  -0.976  -0.0017747621607410529  0.428193323224449640.15555555555555556  -0.976  0.005861844320456089  0.425944360204448260.16666666666666669  -0.976  -0.0005167031516186453  0.423624529483548730.17777777777777778  -0.976  0.007111514137121948  0.42122794923775420.18888888888888888  -0.976  -0.0019472125539865932  0